# U  POINT_DATA 1753
# x y z  U_x U_y U_z
25.5846 0.0097622 1.88755 4.06708e-17 -5.28576e-05 -5.21331e-24
25.5839 0.00978157 -1.88077 -1.08386e-17 -5.31131e-05 -5.26943e-24
25.5839 0.00978157 1.88077 -1.06235e-17 -5.31131e-05 -5.26943e-24
25.5846 0.0097622 -1.86769 -8.77526e-18 -5.28576e-05 -5.21331e-24
25.5846 0.0097622 -1.88755 -8.46525e-18 -5.28576e-05 -5.21331e-24
25.5836 0.00978728 -1.88755 5.74288e-19 -5.34271e-05 -5.19491e-24
25.5836 0.00978728 -1.87878 5.72594e-19 -5.34271e-05 -5.19491e-24
25.5836 0.00978728 1.88755 7.87741e-19 -5.34271e-05 -5.19491e-24
25.5836 1.27302e-15 1.88755 0 0 0
25.5836 1.27302e-15 -1.88755 0 0 0
25.7807 1.28289e-15 1.88755 0 0 0
25.7807 1.28289e-15 -1.88755 0 0 0
25.714 0.00646249 0 -2.73043e-17 -5.05049e-06 -1.68839e-24
25.3935 0.0166492 -1.88755 5.42101e-19 -0.000211191 -4.77262e-24
25.3935 0.0166492 0.521126 8.67362e-19 -0.000211191 -4.77262e-24
25.5108 0.0138686 0.147531 1.15722e-17 -0.000107404 -1.25054e-24
25.3935 0.0166492 1.88755 8.67362e-19 -0.000211191 -4.77262e-24
25.4514 0.0130492 1.88755 5.54395e-17 -0.000127189 -3.76169e-24
25.4514 0.0130492 -1.88755 5.42101e-18 -0.000127189 -3.76169e-24
25.3935 1.2635e-15 1.88755 0 0 0
25.3935 1.2635e-15 -1.88755 0 0 0
25.3318 0.020556 1.88755 3.87962e-17 -0.00030273 -7.15445e-24
25.3318 0.020556 0.617174 3.95703e-17 -0.00030273 -7.15445e-24
25.2616 0.0239079 -1.11022e-16 1.06794e-16 -0.000403924 -6.0948e-24
25.3318 0.020556 -1.88755 -4.79217e-17 -0.00030273 -7.15445e-24
25.2101 0.027268 -1.88755 -2.1684e-19 -0.000515603 -2.59257e-24
25.2101 0.027268 0.235207 -2.1684e-19 -0.000515603 -2.59257e-24
25.2101 0.027268 1.88755 -1.95156e-18 -0.000515603 -2.59257e-24
25.2611 0.0238742 1.88755 -2.86229e-17 -0.000406623 -8.34993e-24
25.2611 0.0238742 -1.88755 -2.78501e-17 -0.000406623 -8.34993e-24
25.3526 0.0181508 1.88755 -2.60209e-17 -0.000245866 -5.99949e-24
25.3675 0.0190285 1.35319 2.99938e-17 -0.000251351 -1.0148e-23
25.3526 0.0181508 -1.88755 -2.64009e-17 -0.000245866 -5.99949e-24
25.3675 0.0190285 -1.35319 2.94903e-17 -0.000251351 -1.0148e-23
25.2101 1.25432e-15 1.88755 0 0 0
25.2101 1.25432e-15 -1.88755 0 0 0
25.1329 0.0324922 1.88755 -5.6276e-17 -0.000683477 3.3241e-24
25.1329 0.0324922 0.239132 -5.63785e-17 -0.000683477 3.3241e-24
25.0856 0.0363998 -1.11022e-16 -1.07661e-16 -0.000802353 3.81357e-24
25.1329 0.0324922 -1.88755 -5.61617e-17 -0.000683477 3.3241e-24
25.0332 0.0417981 -1.88755 -1.73472e-18 -0.000981163 2.37125e-24
25.0332 0.0417981 0.773502 -1.73472e-18 -0.000981163 2.37125e-24
25.0332 0.0417981 1.88755 6.50521e-19 -0.000981163 2.37125e-24
25.0866 0.0364787 1.88755 1.21743e-16 -0.000809373 5.60102e-25
25.0866 0.0364787 -1.88755 1.21431e-16 -0.000809373 5.60102e-25
25.1679 0.0296421 1.88755 -6.80879e-17 -0.000590942 2.04488e-24
25.17 0.0297868 1.03181 9.12305e-18 -0.000593061 3.3841e-24
25.1679 0.0296421 -1.88755 -6.86121e-17 -0.000590942 2.04488e-24
25.17 0.0297868 -1.03181 8.89046e-18 -0.000593061 3.3841e-24
25.0332 1.24546e-15 1.88755 0 0 0
25.0332 1.24546e-15 -1.88755 0 0 0
24.8859 0.0602951 1.88755 1.43526e-16 -0.00159046 -1.43195e-24
24.8772 0.0616792 -1.56403 -1.23599e-17 -0.00163496 -2.16826e-24
24.8772 0.0616792 1.56403 -1.22515e-17 -0.00163496 -2.16826e-24
24.8859 0.0602951 -1.3727 2.49819e-17 -0.00159046 -1.43195e-24
24.8859 0.0602951 -1.88755 1.43874e-16 -0.00159046 -1.43195e-24
24.8626 0.0640746 -1.88755 -1.0842e-18 -0.00172088 -1.18115e-24
24.8626 0.0640746 -1.00409 -1.0842e-18 -0.00172088 -1.18115e-24
24.8626 0.0640746 1.88755 -1.0842e-18 -0.00172088 -1.18115e-24
24.8772 0.0616728 1.88755 -1.01373e-16 -0.00163738 -1.17409e-24
24.8772 0.0616728 -1.88755 -1.01834e-16 -0.00163738 -1.17409e-24
24.9947 0.0456937 1.88755 -6.43768e-17 -0.00110666 3.14711e-24
24.9947 0.0456937 1.03524 -6.44016e-17 -0.00110666 3.14711e-24
24.9319 0.0538312 0.0721051 4.94667e-17 -0.00136178 -1.48959e-25
24.9947 0.0456937 -1.88755 -6.46184e-17 -0.00110666 3.14711e-24
24.942 0.0524921 1.88755 5.18057e-17 -0.00132933 3.21236e-25
24.942 0.0524921 -1.88755 -6.52597e-17 -0.00132933 3.21236e-25
25.0106 0.0439443 1.88755 4.50493e-17 -0.00104962 2.50183e-24
25.0104 0.0439272 1.38236 -4.83976e-17 -0.00104677 4.56121e-24
25.0106 0.0439443 -1.88755 4.6187e-17 -0.00104962 2.50183e-24
25.0104 0.0439272 -1.38236 -4.83835e-17 -0.00104677 4.56121e-24
24.8626 1.23692e-15 1.88755 0 0 0
24.8626 1.23692e-15 -1.88755 0 0 0
24.7887 0.0764447 1.88755 2.45444e-17 -0.00215107 3.84796e-25
24.7887 0.0764447 0.19187 2.40896e-17 -0.00215107 3.84796e-25
24.7561 0.0827532 0 4.51028e-17 -0.00236285 3.81343e-25
24.7887 0.0764447 -1.88755 2.40693e-17 -0.00215107 3.84796e-25
24.698 0.0936269 -1.88755 -8.13152e-19 -0.00276547 -7.15797e-25
24.698 0.0936269 1.74385 -8.13152e-19 -0.00276547 -7.15797e-25
24.698 0.0936269 1.88755 -8.13152e-19 -0.00276547 -7.15797e-25
24.7553 0.0826644 1.88755 -3.20924e-17 -0.00237088 1.21952e-24
24.7553 0.0826644 -1.88755 -3.27089e-17 -0.00237088 1.21952e-24
24.8155 0.0718278 1.88755 5.39487e-17 -0.00198861 -2.5728e-25
24.816 0.0718698 0 -1.09759e-16 -0.00198094 -1.56153e-25
24.8155 0.0718278 -1.88755 5.44269e-17 -0.00198861 -2.5728e-25
24.698 1.22867e-15 1.88755 0 0 0
24.698 1.22867e-15 -1.88755 0 0 0
24.5997 0.114063 1.88755 6.27068e-17 -0.00350843 -5.00931e-25
24.5771 0.119275 -0.98722 5.85191e-18 -0.00369048 1.65633e-24
24.5771 0.119275 0.98722 5.85469e-18 -0.00369048 1.65633e-24
24.5997 0.114063 -0.450325 6.00827e-17 -0.00350843 -5.00931e-25
24.5997 0.114063 -1.88755 6.26669e-17 -0.00350843 -5.00931e-25
24.5393 0.127333 -1.88755 -7.58942e-19 -0.00399761 2.50072e-24
24.5393 0.127333 0.40503 -6.50521e-19 -0.00399761 2.50072e-24
24.5393 0.127333 1.88755 -7.58942e-19 -0.00399761 2.50072e-24
24.5763 0.119167 1.88755 5.33891e-17 -0.00369455 5.21525e-25
24.5763 0.119167 -1.88755 5.39933e-17 -0.00369455 5.21525e-25
24.6945 0.0943067 1.88755 -6.29551e-17 -0.00278987 -7.70349e-25
24.6945 0.0943067 1.80399 -6.29515e-17 -0.00278987 -7.70349e-25
24.6898 0.0953282 1.69236 -6.0389e-17 -0.0028252 -1.57934e-24
24.6898 0.0953282 -1.69236 -6.05256e-17 -0.0028252 -1.57934e-24
24.6945 0.0943067 -1.88755 6.17995e-17 -0.00278987 -7.70349e-25
24.6363 0.106377 1.88755 -6.20164e-17 -0.00322594 -6.0513e-25
24.6373 0.106512 0 -8.43729e-17 -0.00321923 -6.68709e-24
24.6363 0.106377 -1.88755 -6.24726e-17 -0.00322594 -6.0513e-25
24.6958 0.0940554 1.88755 -1.30253e-16 -0.00278075 -7.66168e-25
24.6958 0.094059 1.83517 -6.55476e-17 -0.00278048 -6.29315e-25
24.6958 0.0940554 -1.88755 -1.29703e-16 -0.00278075 -7.66168e-25
24.6958 0.094059 -1.83517 -6.51858e-17 -0.00278048 -6.29315e-25
24.5393 1.22072e-15 1.88755 0 0 0
24.5393 1.22072e-15 -1.88755 0 0 0
24.3956 0.160082 1.88755 -9.64105e-17 -0.00521857 1.84409e-25
24.3917 0.161049 -1.751 -1.00831e-17 -0.00525306 -2.82391e-25
24.3917 0.161049 1.751 -1.00831e-17 -0.00525306 -2.82391e-25
24.3956 0.160082 -1.65518 -9.63856e-17 -0.00521857 1.84409e-25
24.3956 0.160082 -1.88755 -9.72529e-17 -0.00521857 1.84409e-25
24.3861 0.162285 -1.88755 4.06576e-18 -0.00530154 3.35917e-26
24.3861 0.162285 -1.57638 -3.79471e-19 -0.00530154 3.35917e-26
24.3861 0.162285 1.88755 1.26797e-16 -0.00530154 3.35917e-26
24.3915 0.161024 1.88755 -2.33646e-17 -0.00525369 1.89451e-26
24.3915 0.161024 -1.88755 -2.29513e-17 -0.00525369 1.89451e-26
24.5008 0.135914 1.88755 -2.6065e-17 -0.00431497 3.54444e-24
24.5008 0.135914 0.938154 -2.62377e-17 -0.00431497 3.54444e-24
24.4557 0.146889 0 -3.98444e-17 -0.00470349 6.36881e-24
24.5008 0.135914 -1.88755 -2.55872e-17 -0.00431497 3.54444e-24
24.4205 0.154659 -1.04043 -2.24906e-17 -0.00500535 3.16587e-24
24.4205 0.154659 1.04043 -2.24594e-17 -0.00500535 3.16587e-24
24.454 0.146632 1.88755 7.54164e-17 -0.00471175 1.10017e-24
24.454 0.146632 -1.88755 7.45931e-17 -0.00471175 1.10017e-24
24.5157 0.132558 1.88755 2.32944e-17 -0.00418954 3.88771e-24
24.5162 0.132628 1.31989 8.01218e-18 -0.00418672 2.90952e-24
24.5157 0.132558 -1.88755 2.42861e-17 -0.00418954 3.88771e-24
24.5162 0.132628 -1.31989 7.91468e-18 -0.00418672 2.90952e-24
24.3861 1.21306e-15 1.88755 0 0 0
24.3861 1.21306e-15 -1.88755 0 0 0
24.2822 0.186813 1.88755 -5.27332e-17 -0.00623068 -3.48343e-25
24.2629 0.191712 -1.26201 -1.58294e-17 -0.00640777 1.01307e-25
24.2629 0.191712 1.26201 -1.58294e-17 -0.00640777 1.01307e-25
24.2822 0.186813 -0.768909 -5.29091e-17 -0.00623068 -3.48343e-25
24.2822 0.186813 -1.88755 7.65447e-17 -0.00623068 -3.48343e-25
24.2384 0.197197 -1.88755 1.31839e-16 -0.00662683 -4.91336e-25
24.2384 0.197197 -0.561681 1.24683e-16 -0.00662683 -4.91336e-25
24.2384 0.197197 1.88755 3.25261e-18 -0.00662683 -4.91336e-25
24.2622 0.191572 1.88755 -2.73219e-17 -0.00641058 -8.64648e-26
24.2622 0.191572 -1.88755 -2.72342e-17 -0.00641058 -8.64648e-26
24.3273 0.176174 1.88755 -1.21431e-17 -0.0058239 -1.95739e-25
24.3289 0.176452 1.38778e-16 1.19425e-16 -0.00581685 -3.45091e-25
24.3273 0.176174 -1.88755 -1.56483e-17 -0.0058239 -1.95739e-25
24.2384 1.20566e-15 1.88755 0 0 0
24.2384 1.20566e-15 -1.88755 0 0 0
24.158 0.216378 1.88755 -7.23445e-17 -0.00736167 -2.71495e-24
24.1286 0.223881 -1.02146 -1.18612e-16 -0.00763623 -1.90244e-24
24.1286 0.223881 1.02146 -1.19045e-16 -0.00763623 -1.90244e-24
24.158 0.216378 -0.242066 -7.24247e-17 -0.00736167 -2.71495e-24
24.158 0.216378 -1.88755 -7.15573e-17 -0.00736167 -2.71495e-24
24.0959 0.231143 -1.88755 -3.68629e-18 -0.0079298 -1.20564e-24
24.0959 0.231143 -0.183074 -3.90313e-18 -0.0079298 -1.20564e-24
24.0959 0.231143 1.88755 -3.68629e-18 -0.0079298 -1.20564e-24
24.1276 0.223648 1.88755 4.40941e-17 -0.00763916 -2.73394e-24
24.1276 0.223648 -1.88755 4.44523e-17 -0.00763916 -2.73394e-24
24.1955 0.207471 1.88755 -1.19696e-16 -0.00701767 -1.67825e-24
24.1967 0.207724 0 4.22839e-17 -0.00701348 -4.62734e-24
24.1955 0.207471 -1.88755 -1.19669e-16 -0.00701767 -1.67825e-24
24.0959 1.19852e-15 1.88755 0 0 0
24.0959 1.19852e-15 -1.88755 0 0 0
24.0207 0.249078 1.88755 -7.65447e-17 -0.00862082 2.616e-24
23.989 0.257113 -1.04893 7.04044e-18 -0.00891627 4.77957e-24
23.989 0.257113 1.04893 7.15573e-18 -0.00891627 4.77957e-24
24.0207 0.249078 -0.178529 5.33427e-17 -0.00862082 2.616e-24
24.0207 0.249078 -1.88755 -7.71952e-17 -0.00862082 2.616e-24
23.9585 0.263752 -1.88755 -8.67362e-19 -0.00918708 2.66296e-24
23.9585 0.263752 -0.356001 -6.50521e-19 -0.00918708 2.66296e-24
23.9585 0.263752 1.88755 -8.67362e-19 -0.00918708 2.66296e-24
23.988 0.256842 1.88755 2.27273e-17 -0.00891837 3.39025e-24
23.988 0.256842 -1.88755 2.21177e-17 -0.00891837 3.39025e-24
24.0584 0.240143 1.88755 1.20693e-16 -0.00827416 1.16592e-24
24.0595 0.24042 0 7.93636e-17 -0.00827098 7.35107e-25
24.0584 0.240143 -1.88755 1.2013e-16 -0.00827416 1.16592e-24
23.9585 1.19164e-15 1.88755 0 0 0
23.9585 1.19164e-15 -1.88755 0 0 0
23.8673 0.285246 1.88755 1.05561e-17 -0.0100151 -5.99636e-25
23.8446 0.290897 -1.3543 -5.22585e-17 -0.0102228 -2.98614e-24
23.8446 0.290897 1.3543 -5.22585e-17 -0.0102228 -2.98614e-24
23.8673 0.285246 -0.70951 1.03613e-17 -0.0100151 -5.99636e-25
23.8673 0.285246 -1.88755 1.06252e-17 -0.0100151 -5.99636e-25
23.8259 0.294833 -1.88755 0 -0.0103839 -2.03478e-24
23.8259 0.294833 -0.982787 -2.1684e-19 -0.0103839 -2.03478e-24
23.8259 0.294833 1.88755 -2.1684e-19 -0.0103839 -2.03478e-24
23.8439 0.29069 1.88755 6.9155e-17 -0.0102233 -1.54097e-24
23.8439 0.29069 -1.88755 6.87384e-17 -0.0102233 -1.54097e-24
23.9163 0.273751 1.88755 1.45754e-17 -0.00956983 2.21145e-24
23.9178 0.274138 0 7.48099e-18 -0.00956749 6.00279e-25
23.9163 0.273751 -1.88755 1.34441e-17 -0.00956983 2.21145e-24
23.8259 1.185e-15 1.88755 0 0 0
23.8259 1.185e-15 -1.88755 0 0 0
23.7067 0.322543 -1.63221 -4.56555e-17 -0.0114396 -5.59275e-24
23.698 0.324349 -1.88755 -3.41524e-18 -0.0115131 -5.22847e-24
23.7067 0.322543 1.63221 -4.56646e-17 -0.0114396 -5.59275e-24
23.698 0.324349 1.80272 -3.41524e-18 -0.0115131 -5.22847e-24
23.698 0.324349 1.88755 -3.41524e-18 -0.0115131 -5.22847e-24
23.7722 0.308444 0 -1.46906e-17 -0.0108762 -6.56799e-24
23.7702 0.307813 1.88755 1.2698e-16 -0.0108776 -1.96932e-24
23.7702 0.307813 -1.88755 1.27068e-16 -0.0108776 -1.96932e-24
23.698 1.1786e-15 1.88755 0 0 0
23.698 1.1786e-15 -1.88755 0 0 0
23.6941 0.325248 1.88755 6.57213e-17 -0.0115473 -5.3049e-24
23.6941 0.325248 1.76798 -6.36427e-17 -0.0115473 -5.3049e-24
23.6228 0.342533 0 -6.23416e-17 -0.0121717 -6.62579e-24
23.6941 0.325248 -1.88755 6.54316e-17 -0.0115473 -5.3049e-24
23.5746 0.352119 -1.88755 -3.46945e-18 -0.0125613 -5.02734e-25
23.5746 0.352119 0.40515 -3.68629e-18 -0.0125613 -5.02734e-25
23.5746 0.352119 1.88755 -3.46945e-18 -0.0125613 -5.02734e-25
23.6209 0.341836 1.88755 2.15127e-17 -0.0121713 -2.45057e-24
23.6209 0.341836 -1.88755 2.29851e-17 -0.0121713 -2.45057e-24
23.6964 0.324724 1.88755 4.56882e-17 -0.0115273 -5.25107e-24
23.6965 0.324744 1.83994 -7.10441e-17 -0.0115273 -5.21589e-24
23.6964 0.324724 -1.88755 4.54281e-17 -0.0115273 -5.25107e-24
23.6965 0.324744 -1.83994 -7.06869e-17 -0.0115273 -5.21589e-24
23.5746 1.17242e-15 1.88755 0 0 0
23.5746 1.17242e-15 -1.88755 0 0 0
23.4967 0.369492 1.88755 5.61696e-17 -0.0132108 1.96121e-24
23.4705 0.375615 -1.41522 4.94396e-17 -0.0134283 1.57591e-24
23.4705 0.375615 1.41522 4.99327e-17 -0.0134283 1.57591e-24
23.4967 0.369492 -0.585629 5.65407e-17 -0.0132108 1.96121e-24
23.4967 0.369492 -1.88755 5.65954e-17 -0.0132108 1.96121e-24
23.4557 0.378394 -1.88755 6.50521e-18 -0.0135401 1.71949e-24
23.4557 0.378394 -1.20076 6.50521e-18 -0.0135401 1.71949e-24
23.4557 0.378394 1.88755 1.24466e-16 -0.0135401 1.71949e-24
23.4699 0.37535 1.88755 -3.40439e-17 -0.0134271 2.0705e-24
23.4699 0.37535 -1.88755 -3.49496e-17 -0.0134271 2.0705e-24
23.5456 0.358678 1.88755 -4.55365e-17 -0.0128058 7.53121e-25
23.5467 0.359106 1.00134 9.46771e-17 -0.0128064 8.98658e-25
23.5456 0.358678 -1.88755 -4.56668e-17 -0.0128058 7.53121e-25
23.5467 0.359106 -1.00134 9.47593e-17 -0.0128064 8.98658e-25
23.4557 1.16646e-15 1.88755 0 0 0
23.4557 1.16646e-15 -1.88755 0 0 0
23.3409 0.403065 -1.88755 -4.11997e-18 -0.0144363 3.5517e-24
23.3409 0.403065 0.702483 -4.11997e-18 -0.0144363 3.5517e-24
23.4011 0.391713 0.0315388 1.71812e-17 -0.0139934 2.8289e-25
23.3409 0.403065 1.88755 -4.11997e-18 -0.0144363 3.5517e-24
23.3934 0.391905 1.88755 -1.22298e-16 -0.0140307 3.47222e-24
23.3934 0.391905 -1.88755 4.33681e-18 -0.0140307 3.47222e-24
23.3409 1.16071e-15 1.88755 0 0 0
23.3409 1.16071e-15 -1.88755 0 0 0
23.2685 0.418426 1.88755 1.59595e-16 -0.0149812 2.30867e-24
23.2421 0.424281 -1.47919 1.04858e-17 -0.015178 4.52962e-26
23.2421 0.424281 1.47919 1.01915e-17 -0.015178 4.52962e-26
23.2685 0.418426 -0.580668 3.33308e-17 -0.0149812 2.30867e-24
23.2685 0.418426 -1.88755 1.59595e-16 -0.0149812 2.30867e-24
23.2302 0.426309 -1.88755 5.20417e-18 -0.0152556 1.68708e-24
23.2302 0.426309 -1.33771 4.98733e-18 -0.0152556 1.68708e-24
23.2302 0.426309 1.88755 -4.55365e-18 -0.0152556 1.68708e-24
23.2416 0.424005 1.88755 -5.20417e-18 -0.0151757 1.88741e-24
23.2416 0.424005 -1.88755 -5.05482e-18 -0.0151757 1.88741e-24
23.3175 0.4081 1.88755 -9.02056e-17 -0.0146153 3.16421e-24
23.3185 0.408545 1.12516 1.09115e-16 -0.0146179 8.30837e-24
23.3175 0.4081 -1.88755 -9.18447e-17 -0.0146153 3.16421e-24
23.3185 0.408545 -1.12516 1.09071e-16 -0.0146179 8.30837e-24
23.2302 1.15517e-15 1.88755 0 0 0
23.2302 1.15517e-15 -1.88755 0 0 0
23.1234 0.44801 -1.88755 -6.50521e-18 -0.0159869 -3.46953e-27
23.1234 0.44801 0.175939 -6.50521e-18 -0.0159869 -3.46953e-27
23.184 0.437038 0.0853367 -9.23605e-17 -0.0155965 -5.51191e-24
23.1234 0.44801 1.88755 3.03577e-18 -0.0159869 -3.46953e-27
23.1652 0.439641 1.88755 -2.51535e-17 -0.0157067 -7.8596e-25
23.1652 0.439641 -1.88755 -2.52235e-17 -0.0157067 -7.8596e-25
23.1234 1.14982e-15 1.88755 0 0 0
23.1234 1.14982e-15 -1.88755 0 0 0
23.0313 0.466786 -1.48561 3.25261e-18 -0.0165873 1.85493e-24
23.0203 0.468569 -1.88755 7.58942e-18 -0.016651 2.18354e-24
23.0313 0.466786 1.48561 1.40946e-17 -0.0165873 1.85493e-24
23.0203 0.468569 1.61004 8.0231e-18 -0.016651 2.18354e-24
23.0203 0.468569 1.88755 7.80626e-18 -0.016651 2.18354e-24
23.0912 0.455674 0 -2.78012e-17 -0.0162182 -3.25424e-26
23.0897 0.454852 1.88755 2.60209e-18 -0.0162105 -5.81864e-26
23.0897 0.454852 -1.88755 1.8764e-18 -0.0162105 -5.81864e-26
23.0203 1.14466e-15 1.88755 0 0 0
23.0203 1.14466e-15 -1.88755 0 0 0
23.0001 0.472547 1.88755 4.43472e-17 -0.0167735 3.136e-24
22.9411 0.484682 -1.12232 -2.34188e-17 -0.0171258 7.50255e-24
22.9411 0.484682 1.12232 -2.34188e-17 -0.0171258 7.50255e-24
23.0001 0.472547 1.12021 3.46775e-17 -0.0167735 3.136e-24
23.0001 0.472547 -1.88755 4.34765e-17 -0.0167735 3.136e-24
22.921 0.48761 -1.88755 -4.33681e-19 -0.0172214 4.38855e-24
22.921 0.48761 -0.93764 -4.33681e-19 -0.0172214 4.38855e-24
22.921 0.48761 1.88755 -4.33681e-19 -0.0172214 4.38855e-24
22.9401 0.484058 1.88755 1.29155e-17 -0.0171182 5.02443e-24
22.9401 0.484058 -1.88755 2.25514e-17 -0.0171182 5.02443e-24
23.015 0.469641 1.88755 -2.6563e-17 -0.0166846 2.36899e-24
23.0152 0.469778 1.69435 -4.61786e-17 -0.016686 2.11555e-24
23.015 0.469641 -1.88755 -2.90757e-17 -0.0166846 2.36899e-24
23.0152 0.469778 -1.69435 -5.88683e-17 -0.016686 2.11555e-24
22.921 1.13969e-15 1.88755 0 0 0
22.921 1.13969e-15 -1.88755 0 0 0
22.8251 0.505509 -1.88755 4.77049e-18 -0.0177178 1.11841e-24
22.8251 0.505509 0.191226 4.77049e-18 -0.0177178 1.11841e-24
22.8754 0.497956 0.0308925 6.72205e-17 -0.0174926 5.0416e-24
22.8251 0.505509 1.88755 5.63785e-18 -0.0177178 1.11841e-24
22.8659 0.498023 1.88755 -1.52656e-16 -0.0175153 1.78911e-24
22.8659 0.498023 -1.88755 -2.32875e-17 -0.0175153 1.78911e-24
22.8251 1.13489e-15 1.88755 0 0 0
22.8251 1.13489e-15 -1.88755 0 0 0
22.7522 0.519737 -1.08851 8.89046e-17 -0.0180713 -4.48709e-26
22.7326 0.522421 -1.88755 -4.98733e-18 -0.0181458 -2.9176e-25
22.7522 0.519737 1.08851 8.91763e-17 -0.0180713 -4.48709e-26
22.7326 0.522421 1.25791 -4.98733e-18 -0.0181458 -2.9176e-25
22.7326 0.522421 1.88755 -4.98733e-18 -0.0181458 -2.9176e-25
22.7945 0.512573 0 1.16443e-16 -0.0178892 -3.70067e-25
22.7928 0.511524 1.88755 6.95377e-18 -0.0178756 -1.18908e-24
22.7928 0.511524 -1.88755 8.67362e-18 -0.0178756 -1.18908e-24
22.7326 1.13026e-15 1.88755 0 0 0
22.7326 1.13026e-15 -1.88755 0 0 0
22.677 0.532404 1.88755 -2.94753e-17 -0.0183717 -7.78085e-26
22.6502 0.537419 -1.60161 -4.2826e-17 -0.0184775 7.11294e-25
22.6502 0.537419 1.60161 -4.2826e-17 -0.0184775 7.11294e-25
22.677 0.532404 -0.466093 -2.95987e-17 -0.0183717 -7.78085e-26
22.677 0.532404 -1.88755 -2.97071e-17 -0.0183717 -7.78085e-26
22.6435 0.538218 -1.88755 1.51788e-17 -0.0184943 4.16866e-26
22.6435 0.538218 -1.55601 1.51788e-17 -0.0184943 4.16866e-26
22.6435 0.538218 1.88755 -5.63785e-18 -0.0184943 4.16866e-26
22.6498 0.537142 1.88755 -8.65193e-17 -0.0184733 -1.45811e-25
22.6498 0.537142 -1.88755 -8.74812e-17 -0.0184733 -1.45811e-25
22.721 0.524567 1.88755 2.02856e-18 -0.0181972 -5.06093e-26
22.7216 0.524965 1.41831 -3.63156e-17 -0.0182026 -1.4114e-24
22.721 0.524567 -1.88755 4.33681e-19 -0.0181972 -5.06093e-26
22.7216 0.524965 -1.41831 -3.53237e-17 -0.0182026 -1.4114e-24
22.6435 1.12579e-15 1.88755 0 0 0
22.6435 1.12579e-15 -1.88755 0 0 0
22.5806 0.550218 1.11022e-16 -3.26345e-17 -0.0187143 1.32586e-24
22.6328 0.540604 1.41997 -6.05483e-17 -0.0185372 -5.85338e-26
22.6328 0.540604 -1.41997 -6.01732e-17 -0.0185372 -5.85338e-26
22.5574 0.552856 -1.88755 5.20417e-18 -0.0187587 2.01529e-24
22.5574 0.552856 -0.721294 5.20417e-18 -0.0187587 2.01529e-24
22.5574 0.552856 1.88755 5.20417e-18 -0.0187587 2.01529e-24
22.5793 0.549225 1.88755 1.29668e-17 -0.0186991 2.46711e-24
22.5793 0.549225 -1.88755 1.34441e-17 -0.0186991 2.46711e-24
22.5574 1.12148e-15 1.88755 0 0 0
22.5574 1.12148e-15 -1.88755 0 0 0
22.4744 0.566681 -1.88755 8.67362e-19 -0.0189577 1.43712e-24
22.4744 0.566681 0.0671157 8.67362e-19 -0.0189577 1.43712e-24
22.517 0.56167 0.0165601 -6.03087e-17 -0.0188948 5.26937e-24
22.4744 0.566681 1.88755 8.67362e-19 -0.0189577 1.43712e-24
22.5101 0.560846 1.88755 3.24376e-17 -0.018882 1.68116e-24
22.5101 0.560846 -1.88755 3.20924e-17 -0.018882 1.68116e-24
22.4744 1.11733e-15 1.88755 0 0 0
22.4744 1.11733e-15 -1.88755 0 0 0
22.4323 0.575223 -0.0337417 1.44199e-17 -0.0190594 2.52685e-25
22.3944 0.579746 -1.88755 -1.56125e-17 -0.0190927 9.90438e-25
22.3944 0.579746 0.812193 -1.55705e-17 -0.0190927 9.90438e-25
22.3944 0.579746 1.88755 -1.56125e-17 -0.0190927 9.90438e-25
22.4423 0.57202 1.88755 2.52236e-17 -0.0190213 6.11665e-26
22.4423 0.57202 -1.88755 2.21177e-17 -0.0190213 6.11665e-26
22.3944 1.11332e-15 1.88755 0 0 0
22.3944 1.11332e-15 -1.88755 0 0 0
22.3258 0.591238 -1.46756 1.20997e-16 -0.0191658 1.07677e-24
22.3172 0.592104 -1.88755 0 -0.0191659 1.24898e-24
22.3258 0.591238 1.46756 1.22469e-16 -0.0191658 1.07677e-24
22.3172 0.592104 1.51699 2.1684e-19 -0.0191659 1.24898e-24
22.3172 0.592104 1.88755 0 -0.0191659 1.24898e-24
22.3769 0.583623 1.03318 8.79611e-18 -0.0191305 7.58076e-25
22.3759 0.582765 1.88755 -9.75782e-17 -0.019117 1.05359e-24
22.3759 0.582765 -1.88755 -9.97987e-17 -0.019117 1.05359e-24
22.3769 0.583623 -1.03318 8.67362e-18 -0.0191305 7.58076e-25
22.3172 1.10945e-15 1.88755 0 0 0
22.3172 1.10945e-15 -1.88755 0 0 0
22.2759 0.598601 1.88755 7.54896e-17 -0.0191754 6.17507e-25
22.2474 0.603262 -1.64726 5.42101e-19 -0.0191789 2.35414e-38
22.2474 0.603262 1.64726 5.42101e-19 -0.0191789 2.35414e-38
22.2759 0.598601 -0.204317 7.56576e-17 -0.0191754 6.17507e-25
22.2759 0.598601 -1.88755 7.66531e-17 -0.0191754 6.17507e-25
22.2427 0.603651 -1.88755 -3.03577e-18 -0.0191724 1.81391e-25
22.2427 0.603651 -1.62718 -3.03577e-18 -0.0191724 1.81391e-25
22.2427 0.603651 1.88755 -3.03577e-18 -0.0191724 1.81391e-25
22.2471 0.602988 1.88755 7.80626e-18 -0.0191744 1.60993e-25
22.2471 0.602988 -1.88755 6.49051e-18 -0.0191744 1.60993e-25
22.311 0.593099 1.88755 -1.30104e-17 -0.0191698 1.26981e-24
22.3113 0.5934 1.59086 -3.51298e-17 -0.0191746 1.16724e-24
22.311 0.593099 -1.88755 -1.40499e-17 -0.0191698 1.26981e-24
22.3113 0.5934 -1.59086 -3.72168e-17 -0.0191746 1.16724e-24
22.2427 1.10572e-15 1.88755 0 0 0
22.2427 1.10572e-15 -1.88755 0 0 0
22.1853 0.613295 1.12995 5.09443e-17 -0.0191456 -9.79233e-25
22.2364 0.605038 1.55568 2.74399e-17 -0.0191739 2.01106e-38
22.1853 0.613295 -1.12995 5.13422e-17 -0.0191456 -9.79233e-25
22.2364 0.605038 -1.55568 2.93184e-17 -0.0191739 2.0439e-38
22.1708 0.614421 -1.88755 2.1684e-18 -0.0191165 -7.02035e-25
22.1708 0.614421 -1.07183 2.1684e-18 -0.0191165 -7.02035e-25
22.1708 0.614421 1.88755 2.1684e-18 -0.0191165 -7.02035e-25
22.1844 0.612428 1.88755 1.58131e-17 -0.0191314 -8.30145e-25
22.1844 0.612428 -1.88755 1.60462e-17 -0.0191314 -8.30145e-25
22.1708 1.10212e-15 1.88755 0 0 0
22.1708 1.10212e-15 -1.88755 0 0 0
22.1015 0.624663 -1.88755 -5.20417e-18 -0.019014 -1.61931e-24
22.1015 0.624663 -0.543685 -5.20417e-18 -0.019014 -1.61931e-24
22.1382 0.620772 0.0374977 -3.99257e-17 -0.0190914 -9.09277e-25
22.1015 0.624663 1.88755 -5.20417e-18 -0.019014 -1.61931e-24
22.1232 0.621508 1.88755 -6.50521e-18 -0.0190514 -1.34256e-24
22.1232 0.621508 -1.88755 -6.17849e-18 -0.0190514 -1.34256e-24
22.1015 1.09865e-15 1.88755 0 0 0
22.1015 1.09865e-15 -1.88755 0 0 0
22.0347 0.634425 -1.88755 2.60209e-18 -0.0188699 1.9783e-26
22.0347 0.634425 -0.0403133 2.60209e-18 -0.0188699 1.9783e-26
22.0686 0.631764 0.00854459 1.07634e-16 -0.0189752 -5.75373e-24
22.0347 0.634425 1.88755 2.60209e-18 -0.0188699 1.9783e-26
22.0636 0.630253 1.88755 1.12757e-17 -0.0189372 5.36168e-25
22.0636 0.630253 -1.88755 1.12757e-17 -0.0189372 5.36168e-25
22.0347 1.0953e-15 1.88755 0 0 0
22.0347 1.0953e-15 -1.88755 0 0 0
22.0018 0.641277 -0.0123443 1.80113e-17 -0.0188056 5.26425e-24
21.9702 0.643748 -1.88755 1.1189e-16 -0.0186889 7.0393e-25
21.9702 0.643748 0.440482 5.63785e-17 -0.0186889 7.0393e-25
21.9702 0.643748 1.88755 -6.54858e-17 -0.0186889 7.0393e-25
22.0055 0.638684 1.88755 -1.28459e-17 -0.018792 7.15652e-25
22.0055 0.638684 -1.88755 -1.04083e-17 -0.018792 7.15652e-25
21.9702 1.09208e-15 1.88755 0 0 0
21.9702 1.09208e-15 -1.88755 0 0 0
21.9377 0.649919 -0.0287774 -1.74401e-16 -0.0185963 2.91772e-26
21.908 0.652687 -1.88755 1.73472e-18 -0.0184756 0
21.908 0.652687 0.901436 4.33681e-19 -0.0184756 0
21.908 0.652687 1.88755 8.67362e-19 -0.0184756 0
21.949 0.646829 1.88755 -2.77556e-17 -0.0186188 1.07937e-25
21.949 0.646829 -1.88755 -2.35594e-17 -0.0186188 1.07937e-25
21.908 1.08896e-15 1.88755 0 0 0
21.908 1.08896e-15 -1.88755 0 0 0
21.857 0.660773 -1.3184 4.24757e-18 -0.0182762 -8.29926e-24
21.848 0.661337 -1.88755 1.08637e-16 -0.0182299 -1.01824e-23
21.857 0.660773 1.3184 4.17965e-18 -0.0182762 -8.29926e-24
21.848 0.661337 1.34755 5.07407e-17 -0.0182299 -1.01824e-23
21.848 0.661337 1.88755 1.09071e-16 -0.0182299 -1.01824e-23
21.8948 0.655689 1.05615 3.2119e-17 -0.018436 0
21.894 0.654727 1.88755 -4.33681e-19 -0.0184197 -1.31916e-38
21.894 0.654727 -1.88755 -7.14146e-19 -0.0184197 -1.28619e-38
21.8948 0.655689 -1.05615 3.20924e-17 -0.018436 0
21.848 1.73472e-15 1.88755 0 0 0
21.848 1.73472e-15 -1.88755 0 0 0
21.7894 0.669796 -1.77573 1.2902e-17 -0.0179568 -3.66627e-23
21.7876 0.669904 -1.88755 3.82181e-17 -0.0179465 -3.86348e-23
21.7894 0.669796 1.77573 1.14513e-17 -0.0179568 -3.66627e-23
21.7876 0.669904 1.78106 2.01662e-17 -0.0179465 -3.86348e-23
21.7876 0.669904 1.88755 3.70797e-17 -0.0179465 -3.86348e-23
21.8407 0.662979 1.43116 -5.47674e-17 -0.0182038 -9.00907e-24
21.8403 0.662448 1.88755 -3.49113e-17 -0.018194 -1.38247e-23
21.8403 0.662448 -1.88755 -3.72476e-17 -0.018194 -1.38247e-23
21.8407 0.662979 -1.43116 -5.74184e-17 -0.0182038 -9.00907e-24
21.7876 0.000188157 1.88755 0 0 0
21.7876 0.000188157 -1.88755 0 0 0
21.7722 0.672092 1.88755 2.70508e-17 -0.0178642 -8.16771e-24
21.7315 0.6781 -1.62264 -7.80626e-18 -0.0176445 7.0388e-23
21.7315 0.6781 1.62264 -7.37257e-18 -0.0176445 7.0388e-23
21.7722 0.672092 0.925311 5.14996e-18 -0.0178642 -8.16771e-24
21.7722 0.672092 -1.88755 4.93312e-18 -0.0178642 -8.16771e-24
21.7272 0.678292 -1.88755 -3.81639e-17 -0.0176163 7.75248e-23
21.7272 0.678292 -1.61522 -3.83808e-17 -0.0176163 7.75248e-23
21.7272 0.678292 1.88755 -3.25261e-18 -0.0176163 7.75248e-23
21.7312 0.677752 1.88755 8.67362e-19 -0.0176381 7.85836e-23
21.7312 0.677752 -1.88755 2.02992e-18 -0.0176381 7.85836e-23
21.7861 0.670124 1.88755 5.22776e-17 -0.0179383 -3.58841e-23
21.7862 0.670231 1.79728 -1.23986e-17 -0.0179403 -4.22894e-23
21.7861 0.670124 -1.88755 5.76796e-17 -0.0179383 -3.58841e-23
21.7862 0.670231 -1.79728 -1.11508e-17 -0.0179403 -4.22894e-23
21.7272 0.00075262 1.88755 0 0 0
21.7272 0.00075262 -1.88755 0 0 0
21.6766 0.686163 1.27974 -2.01662e-17 -0.0173179 2.19332e-22
21.7221 0.679477 1.56319 7.03965e-17 -0.0175906 6.78522e-23
21.6766 0.686163 -1.27974 -2.08167e-17 -0.0173179 2.19332e-22
21.7221 0.679477 -1.56319 6.56694e-17 -0.0175906 6.78522e-23
21.6669 0.686606 -1.88755 0 -0.017248 2.71145e-22
21.6669 0.686606 -1.26498 7.65009e-20 -0.017248 2.71145e-22
21.6669 0.686606 1.88755 -2.34188e-17 -0.017248 2.71145e-22
21.676 0.685367 1.88755 3.41356e-17 -0.0173031 2.7778e-22
21.676 0.685367 -1.88755 3.46945e-17 -0.0173031 2.7778e-22
21.6668 0.00169337 1.88755 0 0 0
21.6668 0.00169337 -1.88755 0 0 0
21.6215 0.694241 0.948366 5.63785e-18 -0.0169626 3.71905e-22
21.6551 0.689307 1.14927 1.01451e-16 -0.0171827 3.53177e-22
21.6215 0.694241 -0.948366 6.93889e-18 -0.0169626 3.71905e-22
21.6551 0.689307 -1.14927 9.91051e-17 -0.0171827 3.53177e-22
21.6065 0.694933 -1.88755 -1.99493e-17 -0.0168471 2.57026e-22
21.6065 0.694933 -0.928967 -1.95156e-17 -0.0168471 2.57026e-22
21.6065 0.694933 1.88755 -2.21177e-17 -0.0168471 2.57026e-22
21.6206 0.693013 1.88755 8.23994e-18 -0.0169393 2.6566e-22
21.6206 0.693013 -1.88755 9.98107e-18 -0.0169393 2.6566e-22
21.6063 0.00301036 1.88755 0 0 0
21.6063 0.00301036 -1.88755 0 0 0
21.5462 0.70328 -1.88755 5.76796e-17 -0.0164159 1.59518e-22
21.5462 0.70328 -0.606722 2.38524e-17 -0.0164159 1.59518e-22
21.5774 0.700712 0.021212 -5.96921e-17 -0.0166588 -1.48275e-22
21.5462 0.70328 1.88755 5.85469e-17 -0.0164159 1.59518e-22
21.5651 0.700698 1.88755 -4.51028e-17 -0.0165485 1.68675e-22
21.5651 0.700698 -1.88755 5.72459e-17 -0.0165485 1.68675e-22
21.546 0.00470355 1.88755 0 0 0
21.546 0.00470355 -1.88755 0 0 0
21.4858 0.711655 -1.88755 4.0766e-17 -0.015957 2.01492e-22
21.4858 0.711655 -0.297846 2.25514e-17 -0.015957 2.01492e-22
21.5165 0.709641 0.0103076 -5.31327e-17 -0.0162155 5.28034e-23
21.4858 0.711655 1.88755 3.98986e-17 -0.015957 2.01492e-22
21.5093 0.708427 1.88755 -3.64292e-17 -0.0161327 1.99003e-22
21.5093 0.708427 -1.88755 -3.95958e-17 -0.0161327 1.99003e-22
21.4856 0.00677288 1.88755 0 0 0
21.4856 0.00677288 -1.88755 0 0 0
21.4255 0.720065 -1.88755 1.47451e-17 -0.015473 1.21117e-22
21.4255 0.720065 -0.00196331 -7.80626e-18 -0.015473 1.21117e-22
21.4557 0.718572 0.000662268 -3.99931e-17 -0.0157453 8.55347e-22
21.4255 0.720065 1.88755 3.55618e-17 -0.015473 1.21117e-22
21.4535 0.716205 1.88755 -3.64292e-17 -0.0156936 1.26546e-22
21.4535 0.716205 -1.88755 -3.71095e-17 -0.0156936 1.26546e-22
21.4252 0.00921825 1.88755 0 0 0
21.4252 0.00921825 -1.88755 0 0 0
21.3951 0.72671 -0.00585671 -6.60686e-18 -0.0152432 -1.41239e-23
21.3652 0.728516 -1.88755 -1.56125e-17 -0.0149663 -2.23618e-22
21.3652 0.728516 0.281253 -1.54439e-17 -0.0149663 -2.23618e-22
21.3652 0.728516 1.88755 -1.64799e-17 -0.0149663 -2.23618e-22
21.3974 0.724036 1.88755 1.45136e-17 -0.015233 -9.17241e-23
21.3974 0.724036 -1.88755 1.47451e-17 -0.015233 -9.17241e-23
21.3649 0.0120396 1.88755 0 0 0
21.3649 0.0120396 -1.88755 0 0 0
21.3345 0.734839 -0.0113992 -7.18284e-18 -0.0147193 -6.77571e-22
21.3049 0.737012 -1.88755 -3.29597e-17 -0.0144391 -7.82475e-23
21.3049 0.737012 0.552087 -3.1225e-17 -0.0144391 -7.82475e-23
21.3049 0.737012 1.88755 -3.03577e-17 -0.0144391 -7.82475e-23
21.3413 0.731926 1.88755 7.52874e-17 -0.0147527 -2.30561e-22
21.3413 0.731926 -1.88755 7.28584e-17 -0.0147527 -2.30561e-22
21.3045 0.0152368 1.88755 0 0 0
21.3045 0.0152368 -1.88755 0 0 0
21.274 0.743029 -0.0161887 -1.84518e-17 -0.0141764 6.00659e-22
21.2446 0.745558 -1.88755 -6.93889e-18 -0.0138933 2.24826e-22
21.2446 0.745558 0.810785 -1.60462e-17 -0.0138933 2.24826e-22