2.65859 	-0.331211 	-0.0394191 	0.00703966 	4.56791e-20 	0.000257779 	-2.12252e-06 	5.37705e-23 	0.000258444 	3.26217e-22 	0.000258119
2.70606 	-0.33141 	0.0229803 	-0.00167561 	2.61129e-20 	0.00556245 	-0.00172349 	-2.04585e-21 	0.00647398 	-2.07335e-21 	0.00601816
2.75354 	-0.331489 	0.0844392 	-0.00912859 	1.43815e-19 	0.00953851 	-0.00368768 	-3.21917e-21 	0.0112257 	-1.04991e-20 	0.0103821
2.80101 	-0.33153 	0.143439 	-0.0154321 	-4.29792e-20 	0.0130575 	-0.00559596 	4.51314e-21 	0.0153334 	1.54739e-20 	0.0141954
2.84848 	-0.331549 	0.20274 	-0.0211224 	-2.99634e-21 	0.0163358 	-0.00742948 	-1.63066e-21 	0.0190486 	-5.64658e-21 	0.0176923
2.89596 	-0.331554 	0.263309 	-0.0263403 	-2.21032e-20 	0.0194033 	-0.00915479 	3.18781e-21 	0.0224049 	3.67467e-21 	0.0209043
2.94343 	-0.331559 	0.32549 	-0.0311895 	4.78918e-22 	0.0222594 	-0.0108117 	-6.44195e-22 	0.025447 	-8.63152e-21 	0.0238523
2.99091 	-0.331578 	0.391251 	-0.0357584 	3.6703e-20 	0.0248732 	-0.0121964 	-4.67065e-21 	0.0280958 	-2.7329e-22 	0.0264855
3.03838 	-0.331599 	0.462381 	-0.040187 	5.33003e-21 	0.0271999 	-0.0132795 	3.86247e-22 	0.0303072 	8.1887e-21 	0.0287545
3.08586 	-0.331629 	0.53977 	-0.0444188 	-5.25809e-20 	0.0289787 	-0.0140684 	8.62464e-21 	0.0318417 	6.33509e-21 	0.0304107
3.13333 	-0.331687 	0.623005 	-0.0483292 	-7.17626e-20 	0.0298883 	-0.014429 	1.07198e-20 	0.0323886 	-6.12798e-21 	0.0311384
3.18081 	-0.33179 	0.711008 	-0.0518038 	2.30678e-20 	0.0296974 	-0.0142654 	-5.5656e-21 	0.0317446 	-7.34775e-21 	0.0307217
3.22828 	-0.331945 	0.80225 	-0.0547651 	3.28685e-20 	0.0283505 	-0.0135708 	-6.69626e-21 	0.0298926 	1.4063e-22 	0.029123
3.27576 	-0.332177 	0.894891 	-0.0570176 	1.91452e-21 	0.0255621 	-0.0122615 	-8.01027e-23 	0.0265999 	3.5853e-21 	0.0260805
3.32323 	-0.332527 	0.982725 	-0.0584158 	-8.43427e-21 	0.0218625 	-0.0105835 	2.05648e-21 	0.0224956 	1.52066e-21 	0.0221769
3.37071 	-0.332964 	1.06465 	-0.0593409 	-2.04899e-20 	0.0180788 	-0.00888541 	4.11898e-21 	0.0183885 	-2.62387e-22 	0.0182309
3.41818 	-0.33354 	1.13503 	-0.0596828 	-1.12229e-20 	0.0145975 	-0.00733394 	2.30754e-21 	0.0146973 	-6.42798e-22 	0.0146461
3.46566 	-0.334214 	1.19303 	-0.0596447 	3.72317e-21 	0.0117589 	-0.00595728 	-4.99323e-22 	0.0117153 	-5.81859e-22 	0.0117366
3.51313 	-0.33495 	1.24382 	-0.0594053 	4.08375e-21 	0.00932232 	-0.00468087 	-7.86442e-22 	0.00916841 	-4.03583e-22 	0.00924526
3.56061 	-0.335768 	1.28167 	-0.0587966 	2.68153e-21 	0.00764889 	-0.00360068 	-2.14222e-22 	0.00742905 	-1.00232e-22 	0.00753892
3.60808 	-0.336612 	1.31599 	-0.0580855 	8.04207e-21 	0.00619507 	-0.00259441 	-5.00434e-22 	0.00592039 	-6.34282e-23 	0.00605768
3.65556 	-0.337456 	1.33934 	-0.0570923 	9.8804e-21 	0.00531748 	-0.00186847 	-7.66265e-22 	0.00500814 	-2.47832e-24 	0.00516294
3.70303 	-0.338298 	1.35847 	-0.0559972 	1.11054e-20 	0.0046543 	-0.00124621 	-1.37271e-21 	0.00431513 	2.41955e-22 	0.00448509
3.75051 	-0.339149 	1.37149 	-0.0546589 	6.68894e-21 	0.00424434 	-0.000697616 	-1.17758e-21 	0.00386656 	3.25342e-22 	0.00405593
3.79798 	-0.340006 	1.37739 	-0.0530396 	-5.86631e-21 	0.0041176 	-0.000224335 	3.64264e-22 	0.00368828 	2.43583e-22 	0.00390336
3.84545 	-0.340835 	1.37739 	-0.0511921 	-1.1648e-20 	0.00419236 	0.000250167 	1.21778e-21 	0.00368955 	3.40133e-23 	0.00394137
3.89293 	-0.341625 	1.36917 	-0.0490139 	-9.03291e-21 	0.00454973 	0.000733885 	1.18165e-21 	0.00394153 	-4.71084e-22 	0.0042461
3.9404 	-0.342368 	1.35405 	-0.0465205 	-1.51601e-22 	0.00520295 	0.0012987 	-2.90506e-22 	0.00445 	-5.24952e-22 	0.00482685
3.98788 	-0.343076 	1.3336 	-0.0437784 	1.60646e-20 	0.00608975 	0.00192891 	-3.23679e-21 	0.00516095 	-1.20395e-22 	0.00562548
4.03535 	-0.34372 	1.30485 	-0.0406584 	1.24086e-20 	0.00738912 	0.00272069 	-1.99976e-21 	0.00623869 	7.76268e-22 	0.00681371
4.08283 	-0.344336 	1.27227 	-0.0373766 	1.50088e-22 	0.00885527 	0.00355637 	6.50573e-22 	0.00748481 	8.47172e-22 	0.00816978
4.1303 	-0.344921 	1.235 	-0.0339018 	-1.92131e-20 	0.0105166 	0.00443135 	4.24699e-21 	0.00893855 	-5.58447e-22 	0.00972767
4.17778 	-0.345454 	1.18993 	-0.0301171 	4.9974e-21 	0.0124808 	0.00532921 	-1.03634e-21 	0.0107384 	-6.37791e-22 	0.0116098
4.22525 	-0.345953 	1.13822 	-0.0260959 	2.99986e-21 	0.0146471 	0.00630371 	-5.37723e-22 	0.0127561 	1.05916e-22 	0.0137016
4.27273 	-0.346418 	1.07928 	-0.0218812 	3.64371e-22 	0.01689 	0.0073204 	-1.68688e-23 	0.014887 	-1.47051e-22 	0.0158884
4.3202 	-0.346851 	1.01352 	-0.017603 	5.06867e-21 	0.0189384 	0.0082689 	-9.94124e-22 	0.0168973 	6.72846e-22 	0.0179179
4.36768 	-0.347252 	0.942459 	-0.0134506 	-1.0459e-20 	0.0204431 	0.00899461 	2.99443e-21 	0.0184751 	2.93974e-22 	0.0194591
4.41515 	-0.347622 	0.868203 	-0.00968243 	2.6158e-21 	0.0210015 	0.00931732 	-6.00374e-22 	0.0192508 	-6.89918e-22 	0.0201258
4.46263 	-0.347964 	0.794314 	-0.00652682 	-1.18081e-20 	0.0205416 	0.00919686 	4.12527e-21 	0.0191317 	9.36424e-22 	0.0198367
4.5101 	-0.348253 	0.722164 	-0.0040943 	9.07283e-21 	0.0191405 	0.00842241 	-3.06509e-21 	0.0181487 	-7.91876e-22 	0.0186449
4.55758 	-0.348474 	0.647405 	-0.00221869 	-3.77768e-21 	0.0169279 	0.00718323 	9.03728e-22 	0.0163317 	-8.21363e-22 	0.0166297
4.60505 	-0.348638 	0.563962 	-0.000881209 	-1.92892e-21 	0.013751 	0.00557969 	4.09565e-22 	0.0134922 	1.09527e-21 	0.0136216
4.65253 	-0.348731 	0.453237 	-0.000145047 	-4.46375e-21 	0.00906735 	0.00353564 	3.41693e-22 	0.00902644 	-6.59764e-23 	0.0090469
4.7 	-0.348749 	0 	0 	0 	3.20619e-05 	0 	0 	3.20619e-05 	0 	3.20619e-05
