0 	0.00724962 	0 	0 	0 	0.00348924 	0 	0 	0.00348924 	0 	0.00348924
0.0474747 	0.00723345 	0.178207 	-0.000198435 	2.47409e-25 	0.00294582 	-0.000933235 	1.78345e-25 	0.00297868 	-2.19211e-26 	0.00296242
0.0949495 	0.00718433 	0.199463 	-0.000568722 	-1.69113e-24 	0.00362766 	-0.00104393 	-5.28218e-24 	0.00375334 	1.92268e-26 	0.00369053
0.142424 	0.00713624 	0.20952 	-0.000963781 	3.18836e-24 	0.00405477 	-0.00114295 	1.70397e-23 	0.00428081 	4.30219e-25 	0.0041678
0.189899 	0.00708046 	0.216578 	-0.00137243 	-1.20985e-24 	0.0043883 	-0.00124648 	-8.37218e-24 	0.00471372 	-1.05074e-25 	0.00455102
0.237374 	0.00703363 	0.222271 	-0.00177993 	0 	0.00466679 	-0.00135136 	-7.48235e-26 	0.00508446 	-3.47696e-26 	0.00487563
0.284848 	0.00698278 	0.227272 	-0.00219235 	-2.60234e-25 	0.00491714 	-0.00145881 	-2.38687e-24 	0.00542081 	-1.7752e-26 	0.00516898
0.332323 	0.00693901 	0.231806 	-0.00259955 	1.81127e-25 	0.00514389 	-0.00156616 	1.94048e-24 	0.00572458 	-9.09051e-26 	0.00543424
0.379798 	0.00689848 	0.236057 	-0.00300459 	9.25858e-26 	0.0053561 	-0.001674 	1.08497e-24 	0.00600571 	-5.25889e-25 	0.00568091
0.427273 	0.00685878 	0.240135 	-0.00340917 	2.30311e-24 	0.00555889 	-0.00178261 	3.06407e-23 	0.00626974 	2.38291e-25 	0.00591432
0.474747 	0.00682079 	0.244104 	-0.00381203 	-1.2575e-24 	0.00575464 	-0.00189152 	-1.65687e-23 	0.00651907 	7.58091e-25 	0.00613686
0.522222 	0.00679199 	0.247954 	-0.00420267 	-5.96072e-24 	0.00594048 	-0.00199779 	-7.93422e-23 	0.00675001 	1.11725e-24 	0.00634525
0.569697 	0.00676176 	0.251771 	-0.00459017 	2.62591e-24 	0.00612208 	-0.00210358 	3.42149e-23 	0.00696931 	-1.94024e-24 	0.0065457
0.617172 	0.00673327 	0.255566 	-0.00497284 	8.55673e-25 	0.00629998 	-0.00220837 	1.12983e-23 	0.00717917 	1.10045e-25 	0.00673958
0.664646 	0.00670595 	0.25939 	-0.00535506 	-1.07379e-25 	0.00647653 	-0.00231343 	-1.27818e-24 	0.00738081 	5.66131e-25 	0.00692868
0.712121 	0.0066838 	0.263168 	-0.00572107 	0 	0.00664525 	-0.0024141 	7.3208e-28 	0.00756765 	9.86604e-26 	0.00710646
0.759596 	0.00665756 	0.267035 	-0.0060919 	0 	0.00681618 	-0.00251607 	-6.30913e-27 	0.00775233 	-5.54008e-26 	0.00728427
0.807071 	0.0066414 	0.270836 	-0.00644068 	0 	0.00697722 	-0.00261205 	-5.90813e-28 	0.00792021 	8.98109e-26 	0.00744873
0.854545 	0.00661956 	0.274742 	-0.0067931 	0 	0.00714029 	-0.00270873 	-1.55112e-26 	0.00808635 	4.25462e-25 	0.00761334
0.90202 	0.0066053 	0.278625 	-0.00712686 	-5.58855e-25 	0.00729541 	-0.00280012 	-6.27453e-24 	0.00823852 	5.27027e-25 	0.00776698
0.949495 	0.00658515 	0.282635 	-0.00746457 	-2.27804e-24 	0.00745283 	-0.00289213 	-2.54619e-23 	0.00838957 	1.28137e-25 	0.00792122
0.99697 	0.0065744 	0.286568 	-0.00777615 	-2.53471e-24 	0.0075988 	-0.00297661 	-2.92672e-23 	0.00852411 	-2.93706e-25 	0.00806148
1.04444 	0.0065579 	0.290665 	-0.00809435 	1.37809e-24 	0.00774839 	-0.00306235 	1.25034e-23 	0.00865902 	-1.15281e-24 	0.00820373
1.09192 	0.00654764 	0.294676 	-0.00838686 	7.54073e-24 	0.00788639 	-0.00314044 	7.82922e-23 	0.0087788 	-1.98465e-24 	0.00833261
1.13939 	0.00653554 	0.298845 	-0.00867933 	6.14256e-24 	0.00802507 	-0.0032178 	6.56312e-23 	0.00889506 	-1.07886e-24 	0.00846008
1.18687 	0.00652122 	0.303071 	-0.00896272 	-1.71002e-24 	0.00815963 	-0.00329174 	-1.2976e-23 	0.00900449 	1.40121e-24 	0.00858208
1.23434 	0.00651385 	0.307236 	-0.00922182 	-6.90731e-24 	0.00828303 	-0.00335826 	-6.58284e-23 	0.00909977 	2.84728e-24 	0.00869142
1.28182 	0.00650363 	0.311533 	-0.00948331 	-8.03903e-24 	0.0084078 	-0.0034248 	-7.90236e-23 	0.00919404 	2.90119e-24 	0.00880094
1.32929 	0.00649231 	0.315866 	-0.00972689 	-6.22032e-25 	0.00852388 	-0.00348494 	-9.04281e-24 	0.00927677 	-1.33217e-25 	0.00890034
1.37677 	0.0064855 	0.320192 	-0.00995119 	2.03318e-24 	0.00863068 	-0.00353878 	1.59794e-23 	0.00934772 	-1.4256e-24 	0.00898922
1.42424 	0.00647676 	0.324621 	-0.0101754 	3.12393e-24 	0.00873742 	-0.00359193 	2.70619e-23 	0.00941687 	-1.90731e-24 	0.00907716
1.47172 	0.00646564 	0.329121 	-0.0103831 	-4.00554e-27 	0.00883555 	-0.00363868 	4.08064e-26 	0.00947489 	-7.37566e-27 	0.00915524
1.51919 	0.00646093 	0.333498 	-0.0105665 	6.5779e-27 	0.00892141 	-0.00367798 	-2.44358e-25 	0.00952009 	5.91173e-25 	0.00922076
1.56667 	0.00645328 	0.338047 	-0.0107463 	-4.70039e-27 	0.00900488 	-0.00371474 	-4.69412e-25 	0.00956007 	6.88295e-25 	0.00928249
1.61414 	0.0064425 	0.342698 	-0.0109178 	-6.34092e-25 	0.00908333 	-0.00374757 	-5.61942e-24 	0.00959327 	3.12683e-25 	0.00933831
1.66162 	0.00643867 	0.347085 	-0.0110648 	-3.29271e-24 	0.00914963 	-0.00377375 	-2.63742e-23 	0.00961614 	4.64742e-25 	0.00938289
1.70909 	0.00643189 	0.351712 	-0.0111927 	-3.15364e-24 	0.00920451 	-0.00379122 	-2.50184e-23 	0.00962337 	4.22091e-25 	0.00941394
1.75657 	0.00642492 	0.356351 	-0.0113201 	-2.90835e-24 	0.00925907 	-0.00380842 	-2.2827e-23 	0.00963011 	3.65267e-25 	0.00944459
1.80404 	0.0064137 	0.361126 	-0.0114309 	6.37125e-25 	0.00930359 	-0.00381821 	4.69696e-24 	0.00962476 	-3.21737e-25 	0.00946416
1.85152 	0.0064117 	0.365511 	-0.0115205 	3.98822e-24 	0.00933817 	-0.00382348 	2.81126e-23 	0.00961319 	-1.29282e-24 	0.00947566
1.89899 	0.00640507 	0.370179 	-0.0115871 	3.79476e-24 	0.00935846 	-0.00381781 	2.61315e-23 	0.00958329 	-1.19948e-24 	0.00947087
1.94646 	0.00639844 	0.374846 	-0.0116537 	3.60131e-24 	0.00937875 	-0.00381215 	2.41504e-23 	0.0095534 	-1.10614e-24 	0.00946608
1.99394 	0.00638853 	0.379605 	-0.0117026 	1.24298e-24 	0.00938846 	-0.00379881 	7.39757e-24 	0.00951181 	-2.79319e-25 	0.00945015
2.04141 	0.0063844 	0.384062 	-0.0117358 	1.46811e-25 	0.00939074 	-0.00378203 	2.53261e-26 	0.0094659 	3.37654e-25 	0.00942835
2.08889 	0.00637912 	0.388594 	-0.0117422 	1.17236e-25 	0.00937721 	-0.00375446 	2.1835e-25 	0.00940313 	4.12983e-25 	0.0093902
2.13636 	0.00637256 	0.393194 	-0.0117398 	1.976e-25 	0.0093583 	-0.00372302 	1.17435e-24 	0.00933419 	3.61358e-25 	0.00934627
2.18384 	0.00636556 	0.3978 	-0.0117342 	2.69505e-25 	0.00933753 	-0.00369027 	2.02434e-24 	0.00926335 	2.76462e-25 	0.00930047
2.23131 	0.00635524 	0.402439 	-0.0116998 	2.01691e-25 	0.00929985 	-0.00364587 	1.49604e-24 	0.0091757 	-7.45668e-26 	0.00923778
2.27879 	0.00635312 	0.406663 	-0.0116637 	-5.61232e-25 	0.00926343 	-0.00360439 	-3.58842e-24 	0.00909372 	3.29801e-29 	0.00917856
2.32626 	0.00634689 	0.410839 	-0.0115932 	-6.80673e-25 	0.00920772 	-0.00355072 	-4.3946e-24 	0.00899339 	-3.31207e-27 	0.00910054
2.37374 	0.00634048 	0.415013 	-0.0115213 	-7.72391e-25 	0.00915118 	-0.00349652 	-5.01645e-24 	0.00889226 	-1.00152e-26 	0.0090217
2.42121 	0.0063339 	0.419178 	-0.0114481 	-8.16154e-25 	0.00909397 	-0.00344191 	-5.31452e-24 	0.00879059 	-2.47333e-26 	0.00894225
2.46869 	0.00632356 	0.42314 	-0.0113455 	2.53286e-25 	0.00902103 	-0.00337771 	1.90377e-24 	0.00867639 	-2.2551e-25 	0.00884869
2.51616 	0.00632025 	0.42747 	-0.0112279 	8.20999e-25 	0.00893902 	-0.00330637 	5.91574e-24 	0.00854927 	-3.13978e-25 	0.00874412
2.56364 	0.0063135 	0.431553 	-0.0110858 	1.32616e-24 	0.00884498 	-0.00322645 	1.01938e-23 	0.0084137 	-3.72346e-25 	0.00862933
2.61111 	0.0063063 	0.435606 	-0.0109412 	1.8294e-24 	0.00874972 	-0.00314565 	1.45323e-23 	0.00827734 	-4.28524e-25 	0.00851352
2.65859 	0.00629803 	0.439536 	-0.0107922 	2.25044e-24 	0.00865273 	-0.00306361 	1.8384e-23 	0.00814094 	-4.44588e-25 	0.00839683
2.70606 	0.00628885 	0.44321 	-0.0106253 	2.10859e-24 	0.00854775 	-0.00297564 	1.79423e-23 	0.00800048 	-3.17222e-25 	0.00827411
2.75354 	0.00628443 	0.447042 	-0.0104357 	1.15061e-24 	0.00843088 	-0.00287834 	9.93694e-24 	0.00784721 	-1.16643e-25 	0.00813905
2.80101 	0.00627658 	0.450652 	-0.0102344 	6.01791e-25 	0.00830942 	-0.00277721 	4.76806e-24 	0.00769262 	4.02486e-26 	0.00800102
2.84848 	0.00626874 	0.454262 	-0.010033 	5.29758e-26 	0.00818796 	-0.00267608 	-4.00812e-25 	0.00753803 	1.9714e-25 	0.007863
2.89596 	0.00625677 	0.457442 	-0.00982596 	-1.76717e-25 	0.00806644 	-0.00257411 	-2.98551e-24 	0.00738939 	2.60594e-25 	0.00772791
2.94343 	0.00625272 	0.460824 	-0.00958992 	1.98931e-26 	0.00793019 	-0.0024604 	-5.83122e-25 	0.00722505 	-2.11518e-25 	0.00757762
2.99091 	0.00624403 	0.46394 	-0.00934571 	1.61531e-26 	0.00779212 	-0.0023444 	2.81693e-25 	0.00706296 	-2.50793e-25 	0.00742754
3.03838 	0.00623517 	0.467041 	-0.00910164 	1.16368e-26 	0.00765422 	-0.00222848 	1.15638e-24 	0.00690123 	-2.74039e-25 	0.00727772
3.08586 	0.00622343 	0.469766 	-0.00885543 	8.51431e-25 	0.00751838 	-0.00211285 	1.12651e-23 	0.00674715 	1.21463e-25 	0.00713276
3.13333 	0.00621722 	0.472543 	-0.00858304 	3.20761e-24 	0.00737056 	-0.00198718 	3.60328e-23 	0.00658223 	1.92696e-25 	0.00697639
3.18081 	0.00620747 	0.475145 	-0.00830852 	3.19016e-24 	0.00722332 	-0.00186129 	3.51716e-23 	0.00642064 	1.73497e-25 	0.00682197
3.22828 	0.00619484 	0.47755 	-0.00803984 	8.07247e-25 	0.00708042 	-0.00173819 	7.8662e-24 	0.00626604 	1.0638e-25 	0.00667321
3.27576 	0.00618753 	0.479873 	-0.00775282 	-6.2711e-24 	0.00693017 	-0.00160849 	-7.65539e-23 	0.00610687 	7.31665e-25 	0.0065185
3.32323 	0.0061765 	0.481968 	-0.00745858 	-6.27776e-24 	0.0067789 	-0.00147702 	-7.56256e-23 	0.00595099 	8.11085e-25 	0.00636493
3.37071 	0.00616353 	0.483958 	-0.00716954 	-3.54491e-24 	0.0066308 	-0.00134782 	-4.09805e-23 	0.00579963 	5.60441e-25 	0.0062152
3.41818 	0.00615402 	0.485782 	-0.00687186 	6.04989e-24 	0.00648018 	-0.00121603 	8.28493e-23 	0.00564934 	-8.43285e-25 	0.00606474
3.46566 	0.00614152 	0.487387 	-0.00656638 	5.50708e-24 	0.00632801 	-0.00108248 	7.27064e-23 	0.00550207 	-7.55551e-25 	0.00591502
3.51313 	0.0061261 	0.48887 	-0.00626961 	9.34925e-25 	0.0061805 	-0.000952561 	8.1805e-24 	0.00536088 	8.50278e-26 	0.00577067
3.56061 	0.00611572 	0.490178 	-0.00596046 	-6.85893e-24 	0.00602835 	-0.000819018 	-1.01914e-22 	0.00521934 	1.93332e-24 	0.00562382
3.60808 	0.00610162 	0.491316 	-0.00565035 	-6.94351e-24 	0.00587696 	-0.000686138 	-1.00537e-22 	0.00508179 	1.75658e-24 	0.00547936
3.65556 	0.00608501 	0.492258 	-0.00535123 	-1.61705e-24 	0.00573103 	-0.000558092 	-2.16642e-23 	0.00495229 	-2.90427e-25 	0.00534165
3.70303 	0.00607185 	0.493007 	-0.00503877 	-4.21009e-25 	0.00557962 	-0.000426614 	-6.2204e-24 	0.00482205 	-8.33513e-25 	0.00520082
3.75051 	0.00605241 	0.493606 	-0.00473981 	3.25871e-26 	0.00543463 	-0.000300757 	-9.31444e-25 	0.00469974 	-2.70127e-25 	0.00506717
3.79798 	0.00603936 	0.493971 	-0.00443045 	-3.20159e-25 	0.0052845 	-0.000172805 	-6.75542e-24 	0.00457727 	-4.5486e-26 	0.00493087
3.84545 	0.00601932 	0.494174 	-0.00413216 	-1.08447e-24 	0.00513949 	-4.9853e-05 	-1.95843e-23 	0.0044617 	5.24108e-26 	0.00480059
3.89293 	0.00600398 	0.49412 	-0.00383121 	-4.97488e-25 	0.00499202 	7.22638e-05 	-9.60573e-24 	0.00434794 	-5.87062e-25 	0.00466998
3.9404 	0.00598159 	0.493892 	-0.00354135 	3.73571e-25 	0.00484923 	0.000189251 	4.98687e-24 	0.00424043 	-7.16769e-25 	0.00454483
3.98788 	0.00596583 	0.493367 	-0.00324711 	3.89613e-24 	0.00470234 	0.000305576 	6.88086e-23 	0.00413317 	-6.59419e-25 	0.00441775
4.03535 	0.00594462 	0.492646 	-0.00296547 	2.12517e-24 	0.00455993 	0.000416278 	3.88068e-23 	0.00403145 	-6.47976e-26 	0.00429569
4.08283 	0.00592511 	0.491598 	-0.00268418 	8.81759e-25 	0.00441545 	0.000524284 	1.70145e-23 	0.00393108 	6.78318e-25 	0.00417327
4.1303 	0.00590452 	0.490224 	-0.00241504 	2.94596e-26 	0.00427352 	0.000626191 	7.45417e-25 	0.00383455 	2.48741e-25 	0.00405404
4.17778 	0.00588341 	0.488547 	-0.0021524 	-8.74477e-25 	0.00413213 	0.00072394 	-1.63047e-23 	0.00373981 	1.93147e-25 	0.00393597
4.22525 	0.00585794 	0.48643 	-0.00190092 	0 	0.00399273 	0.000815121 	-1.61246e-27 	0.00364794 	-1.65527e-25 	0.00382034
4.27273 	0.00583864 	0.483784 	-0.00165443 	0 	0.00385121 	0.000901694 	1.42958e-26 	0.00355514 	0 	0.00370318
4.3202 	0.0058187 	0.480534 	-0.00141995 	0 	0.00371123 	0.000981382 	-1.2081e-26 	0.00346334 	-1.60168e-25 	0.00358729
4.36768 	0.00579745 	0.476502 	-0.00119865 	1.24911e-24 	0.00357329 	0.00105352 	1.60814e-23 	0.00337219 	-1.91014e-25 	0.00347274
4.41515 	0.00577749 	0.471402 	-0.000990005 	1.31606e-24 	0.00343709 	0.00111778 	1.68384e-23 	0.00328076 	3.21263e-25 	0.00335893
4.46263 	0.00576287 	0.464673 	-0.000793842 	-9.8125e-25 	0.00330284 	0.00117298 	-9.83729e-24 	0.0031885 	9.50762e-26 	0.00324567
4.5101 	0.00574366 	0.455589 	-0.000614488 	-1.017e-25 	0.00317676 	0.00121713 	7.20156e-25 	0.00309969 	2.32232e-26 	0.00313822
4.55758 	0.00573403 	0.44193 	-0.000449328 	9.81844e-25 	0.00306388 	0.00124677 	3.12292e-24 	0.00301857 	3.19256e-26 	0.00304123
4.60505 	0.00571992 	0.418012 	-0.000300104 	-9.02641e-25 	0.00299065 	0.00124815 	-3.95261e-24 	0.0029693 	-1.74375e-25 	0.00297997
4.65253 	0.0057159 	0.354225 	-0.00015161 	-3.75407e-24 	0.00293949 	0.00107482 	-9.27098e-25 	0.00293369 	-1.12282e-25 	0.0029366
4.7 	0.00571195 	0 	0 	0 	0.00471406 	0 	0 	0.00471406 	0 	0.00471406
