0 	-0.0485231 	0 	0 	0 	3.2894e-05 	0 	0 	3.2894e-05 	0 	3.2894e-05
0.0474747 	-0.0486055 	-0.0717587 	-0.00125043 	1.15782e-24 	0.00423498 	-9.58754e-05 	2.54225e-26 	0.00439392 	-3.97853e-26 	0.00431532
0.0949495 	-0.0488498 	-0.0651951 	-0.00296587 	-4.59767e-25 	0.00692731 	-0.000661105 	-2.5385e-25 	0.00757571 	3.18577e-25 	0.00725183
0.142424 	-0.0491158 	-0.0579414 	-0.00472821 	3.17801e-25 	0.0085246 	-0.0012098 	1.31582e-25 	0.00969321 	-6.21421e-25 	0.00910897
0.189899 	-0.049371 	-0.0505436 	-0.00649667 	2.20001e-25 	0.00977977 	-0.00175431 	1.10433e-27 	0.0114422 	1.23719e-24 	0.010611
0.237374 	-0.0496111 	-0.043004 	-0.00825653 	-3.82096e-25 	0.0108567 	-0.00229493 	-5.20067e-25 	0.0129748 	-7.71655e-25 	0.0119157
0.284848 	-0.0498345 	-0.035277 	-0.0100083 	1.90275e-24 	0.0118435 	-0.00283422 	8.16868e-25 	0.0143815 	1.66507e-24 	0.0131125
0.332323 	-0.0500418 	-0.0274601 	-0.0117265 	-5.79123e-24 	0.0127563 	-0.00336461 	-1.85903e-24 	0.0156695 	-1.72165e-26 	0.0142129
0.379798 	-0.0502305 	-0.0194207 	-0.0134294 	-1.66138e-24 	0.0136315 	-0.00389236 	-6.87047e-25 	0.0168811 	-2.7622e-24 	0.0152563
0.427273 	-0.0504021 	-0.0112 	-0.015108 	4.54271e-24 	0.0144791 	-0.00441471 	7.50601e-25 	0.0180271 	-9.07987e-25 	0.0162531
0.474747 	-0.0505562 	-0.00274172 	-0.016767 	5.91836e-24 	0.01531 	-0.00493336 	-3.96765e-25 	0.0191204 	2.49582e-24 	0.0172153
0.522222 	-0.0506954 	0.00582907 	-0.0183831 	7.94116e-25 	0.0161178 	-0.00544086 	-7.98188e-25 	0.0201531 	3.19393e-24 	0.0181356
0.569697 	-0.0508175 	0.0146578 	-0.0199713 	-4.45849e-24 	0.0169158 	-0.00594281 	8.86017e-25 	0.021143 	-7.90494e-25 	0.0190295
0.617172 	-0.0509281 	0.0236513 	-0.0215322 	-5.27311e-25 	0.0177046 	-0.0064387 	-7.14203e-25 	0.0220998 	-1.06721e-24 	0.0199023
0.664646 	-0.0510273 	0.032833 	-0.0230661 	3.42851e-24 	0.018485 	-0.0069288 	-2.31099e-24 	0.0230239 	-1.25017e-25 	0.0207545
0.712121 	-0.0511117 	0.0422334 	-0.0245511 	8.47949e-25 	0.0192503 	-0.0074079 	-1.68874e-24 	0.023903 	1.17318e-24 	0.0215767
0.759596 	-0.0511896 	0.0517873 	-0.0260229 	-1.03747e-24 	0.0200134 	-0.00788501 	8.3882e-25 	0.0247684 	2.68671e-25 	0.0223909
0.807071 	-0.0512554 	0.0615002 	-0.0274362 	-2.67058e-24 	0.0207559 	-0.0083482 	2.75761e-24 	0.0255852 	-1.01215e-24 	0.0231705
0.854545 	-0.0513156 	0.0713377 	-0.0288346 	-1.47182e-24 	0.0214954 	-0.00880891 	1.97535e-24 	0.026391 	-1.5629e-24 	0.0239431
0.90202 	-0.0513639 	0.0814036 	-0.0301797 	2.18364e-25 	0.0222175 	-0.00925784 	-5.09784e-25 	0.0271533 	-7.72244e-25 	0.0246854
0.949495 	-0.0514077 	0.0915863 	-0.031515 	2.265e-24 	0.0229383 	-0.00970555 	-4.85647e-24 	0.027909 	1.23373e-24 	0.0254236
0.99697 	-0.0514407 	0.10187 	-0.0327781 	2.16249e-24 	0.0236316 	-0.010135 	-4.99822e-24 	0.0286114 	1.67967e-24 	0.0261215
1.04444 	-0.0514705 	0.112302 	-0.0340442 	9.53211e-25 	0.0243291 	-0.0105668 	-2.46182e-24 	0.0293143 	1.26891e-24 	0.0268217
1.09192 	-0.0514886 	0.12281 	-0.0352329 	-1.55418e-24 	0.0249969 	-0.0109786 	3.4925e-24 	0.0299638 	-4.25328e-25 	0.0274804
1.13939 	-0.0515027 	0.133435 	-0.036406 	-2.18508e-24 	0.0256604 	-0.0113869 	4.87705e-24 	0.0305994 	-1.06204e-24 	0.0281299
1.18687 	-0.0515101 	0.144159 	-0.0375533 	-1.16589e-24 	0.0263158 	-0.0117893 	2.44816e-24 	0.0312183 	-1.01693e-24 	0.0287671
1.23434 	-0.0515058 	0.154992 	-0.0386214 	-6.30056e-25 	0.0269405 	-0.0121702 	1.37579e-24 	0.031779 	-7.97779e-25 	0.0293597
1.28182 	-0.0515009 	0.165852 	-0.0396891 	-1.15945e-25 	0.0275655 	-0.0125511 	3.65765e-25 	0.0323389 	-5.67916e-25 	0.0299521
1.32929 	-0.0514862 	0.17681 	-0.0407085 	0 	0.0281734 	-0.0129195 	2.91557e-25 	0.032867 	-2.27002e-25 	0.0305199
1.37677 	-0.0514618 	0.18786 	-0.0416553 	0 	0.0287518 	-0.0132678 	1.84845e-25 	0.0333402 	-1.29075e-25 	0.0310458
1.42424 	-0.0514374 	0.19891 	-0.042602 	0 	0.0293302 	-0.0136161 	7.81336e-26 	0.0338135 	-3.11491e-26 	0.0315716
1.47172 	-0.0514044 	0.210065 	-0.0435102 	-9.72466e-27 	0.0298955 	-0.0139548 	-2.99728e-25 	0.0342608 	5.09188e-26 	0.0320781
1.51919 	-0.0513586 	0.221206 	-0.0443195 	-1.46824e-27 	0.0304165 	-0.0142882 	-4.82823e-25 	0.0346374 	7.5709e-26 	0.0325271
1.56667 	-0.0513115 	0.232392 	-0.0451255 	-3.0587e-27 	0.0309366 	-0.0146229 	-5.44886e-25 	0.0350109 	8.00167e-26 	0.0329742
1.61414 	-0.0512585 	0.243747 	-0.0459222 	-7.83634e-26 	0.0314559 	-0.0149628 	5.69087e-26 	0.0353769 	-6.45172e-26 	0.0334171
1.66162 	-0.0511931 	0.25491 	-0.0466113 	-4.26385e-25 	0.0319259 	-0.0152659 	3.47716e-24 	0.0356677 	-6.89074e-25 	0.0337976
1.70909 	-0.0511182 	0.266307 	-0.0472578 	-4.75796e-25 	0.0323803 	-0.0155301 	4.16017e-24 	0.0359169 	-7.65725e-25 	0.0341492
1.75657 	-0.0510433 	0.277704 	-0.0479044 	-5.25206e-25 	0.0328346 	-0.0157942 	4.84318e-24 	0.0361661 	-8.42376e-25 	0.0345008
1.80404 	-0.050957 	0.289432 	-0.0485261 	-7.99634e-26 	0.0332845 	-0.0160328 	1.21339e-24 	0.0363908 	-1.40724e-25 	0.0348379
1.85152 	-0.0508656 	0.300905 	-0.0490294 	4.18053e-25 	0.0336628 	-0.0161937 	-3.28152e-24 	0.0365226 	5.79811e-25 	0.0350926
1.89899 	-0.0507666 	0.312783 	-0.0494968 	4.61581e-25 	0.0340171 	-0.0163288 	-3.72363e-24 	0.0366129 	6.26576e-25 	0.0353147
1.94646 	-0.0506676 	0.324661 	-0.0499643 	5.05109e-25 	0.0343714 	-0.016464 	-4.16574e-24 	0.0367033 	6.7334e-25 	0.0355368
1.99394 	-0.0505633 	0.3368 	-0.0504129 	2.49085e-25 	0.0347137 	-0.0165854 	-1.92224e-24 	0.036773 	3.05051e-25 	0.0357426
2.04141 	-0.0504551 	0.348901 	-0.0507554 	-2.48385e-25 	0.0349823 	-0.0166521 	2.58869e-24 	0.0367577 	-3.3708e-25 	0.0358694
2.08889 	-0.0503386 	0.361395 	-0.0510008 	-2.07832e-25 	0.0351866 	-0.0166812 	2.11845e-24 	0.0366547 	-2.73537e-25 	0.0359202
2.13636 	-0.0502221 	0.373889 	-0.0512462 	-1.6728e-25 	0.0353909 	-0.0167103 	1.64821e-24 	0.0365517 	-2.09993e-25 	0.035971
2.18384 	-0.0501055 	0.386384 	-0.0514916 	-1.26727e-25 	0.0355952 	-0.0167394 	1.17797e-24 	0.0364487 	-1.4645e-25 	0.0360218
2.23131 	-0.0499788 	0.399379 	-0.0516681 	1.5685e-25 	0.0357538 	-0.0167413 	-1.6196e-24 	0.0362816 	1.80827e-25 	0.0360177
2.27879 	-0.049856 	0.41156 	-0.051709 	2.14015e-25 	0.0358157 	-0.0166954 	-2.23651e-24 	0.0360207 	2.2851e-25 	0.0359187
2.32626 	-0.0497266 	0.423725 	-0.0516619 	2.12856e-25 	0.0358175 	-0.0166159 	-2.36131e-24 	0.0356855 	2.40102e-25 	0.0357528
2.37374 	-0.0495971 	0.43589 	-0.0516147 	2.11697e-25 	0.0358193 	-0.0165363 	-2.48611e-24 	0.0353504 	2.51694e-25 	0.0355868
2.42121 	-0.0494677 	0.448056 	-0.0515675 	2.10537e-25 	0.0358211 	-0.0164568 	-2.61091e-24 	0.0350152 	2.63286e-25 	0.0354208
2.46869 	-0.0493299 	0.460271 	-0.0514395 	1.94896e-25 	0.0357652 	-0.0163453 	-2.69394e-24 	0.0346096 	3.00747e-25 	0.0351909
2.51616 	-0.0491757 	0.473341 	-0.0511456 	2.7751e-25 	0.0356034 	-0.0161694 	-4.09328e-24 	0.0340555 	4.90875e-25 	0.0348335
2.56364 	-0.0490196 	0.485888 	-0.0507312 	2.3715e-25 	0.0353747 	-0.0159594 	-3.52682e-24 	0.0334398 	4.07944e-25 	0.0344105
2.61111 	-0.0488635 	0.498434 	-0.0503167 	1.96791e-25 	0.035146 	-0.0157494 	-2.96036e-24 	0.032824 	3.25013e-25 	0.0339875
2.65859 	-0.0487073 	0.51098 	-0.0499023 	1.56431e-25 	0.0349173 	-0.0155393 	-2.39389e-24 	0.0322083 	2.42083e-25 	0.0335645
2.70606 	-0.0485436 	0.523143 	-0.0493446 	-2.66478e-25 	0.034604 	-0.0152852 	4.23416e-24 	0.031509 	-4.92767e-25 	0.0330559
2.75354 	-0.0484092 	0.53523 	-0.0486082 	-4.06359e-25 	0.03417 	-0.0149439 	6.3587e-24 	0.0307198 	-7.41647e-25 	0.0324424
2.80101 	-0.048289 	0.547006 	-0.0478384 	-2.58532e-25 	0.0337105 	-0.0145829 	3.79598e-24 	0.029927 	-5.51307e-25 	0.0318149
2.84848 	-0.0481689 	0.558783 	-0.0470685 	-1.10704e-25 	0.033251 	-0.0142219 	1.23326e-24 	0.0291342 	-3.60967e-25 	0.0311873
2.89596 	-0.0480695 	0.570098 	-0.0462457 	5.85181e-25 	0.032748 	-0.013829 	-1.02818e-23 	0.0283315 	6.34843e-25 	0.0305338
2.94343 	-0.0480221 	0.581463 	-0.0452333 	1.10127e-24 	0.0320909 	-0.0133099 	-1.88684e-23 	0.0274494 	1.43849e-24 	0.0297651
2.99091 	-0.0479985 	0.592385 	-0.0441835 	9.1149e-25 	0.0313918 	-0.0127513 	-1.61737e-23 	0.0265782 	1.41749e-24 	0.0289813
3.03838 	-0.0479749 	0.603308 	-0.0431336 	7.21708e-25 	0.0306927 	-0.0121928 	-1.3479e-23 	0.025707 	1.39649e-24 	0.0281976
3.08586 	-0.0479784 	0.61387 	-0.0420245 	-1.97635e-25 	0.0299292 	-0.0115762 	9.30518e-25 	0.0248326 	5.60158e-25 	0.0273808
3.13333 	-0.0480174 	0.62426 	-0.0407636 	-1.14548e-24 	0.0290329 	-0.0108761 	1.46945e-23 	0.0239041 	-3.68015e-25 	0.0264696
3.18081 	-0.0480591 	0.634403 	-0.0394947 	-1.99371e-24 	0.0281281 	-0.0101789 	2.64261e-23 	0.0229809 	-1.26982e-24 	0.0255563
3.22828 	-0.0481011 	0.644481 	-0.0382232 	-2.80905e-24 	0.0272202 	-0.00948194 	3.75685e-23 	0.0220584 	-2.16165e-24 	0.0246416
3.27576 	-0.0481593 	0.654075 	-0.0368265 	-2.86149e-24 	0.0262107 	-0.00874105 	3.85672e-23 	0.0210945 	-2.73539e-24 	0.0236536
3.32323 	-0.0482273 	0.663209 	-0.0353808 	-1.37476e-24 	0.0251751 	-0.00798145 	2.19588e-23 	0.0201323 	-2.01391e-24 	0.022654
3.37071 	-0.0482954 	0.672342 	-0.0339351 	1.11976e-25 	0.0241395 	-0.00722184 	5.35048e-24 	0.0191701 	-1.29244e-24 	0.0216544
3.41818 	-0.0483753 	0.680705 	-0.0323976 	3.58387e-24 	0.0230547 	-0.00642432 	-3.47522e-23 	0.0182049 	1.14707e-24 	0.0206295
3.46566 	-0.0484632 	0.688322 	-0.0308087 	3.8251e-24 	0.0219623 	-0.00561671 	-3.99765e-23 	0.017262 	1.83446e-24 	0.0196119
3.51313 	-0.0485509 	0.695886 	-0.0292204 	3.80946e-24 	0.0208716 	-0.00481008 	-4.24235e-23 	0.016322 	2.37989e-24 	0.0185967
3.56061 	-0.0486458 	0.702095 	-0.0275529 	-1.91346e-25 	0.0197846 	-0.00399192 	-2.40601e-24 	0.0154292 	7.61449e-25 	0.0176069
3.60808 	-0.0487418 	0.707627 	-0.0258729 	-1.65266e-24 	0.0187233 	-0.00318503 	1.28126e-23 	0.0145734 	-3.00522e-27 	0.0166484
3.65556 	-0.0488364 	0.712567 	-0.0241869 	-1.25509e-24 	0.0176859 	-0.00238752 	1.07257e-23 	0.0137503 	-3.19254e-25 	0.0157182
3.70303 	-0.0489312 	0.715661 	-0.0224681 	-5.59644e-25 	0.016728 	-0.00162116 	4.77825e-24 	0.0130274 	-3.08258e-25 	0.0148779
3.75051 	-0.0490229 	0.71841 	-0.0207682 	0 	0.0157975 	-0.000870995 	-1.31982e-28 	0.0123311 	-2.10213e-25 	0.0140645
3.79798 	-0.0491093 	0.718982 	-0.0190734 	-1.43378e-26 	0.0149866 	-0.000175368 	-4.02933e-27 	0.0117623 	2.31603e-25 	0.0133747
3.84545 	-0.0491927 	0.718996 	-0.0174016 	-3.79682e-26 	0.0142159 	0.000496393 	-1.07154e-26 	0.0112312 	4.31513e-25 	0.0127238
3.89293 	-0.0492655 	0.716727 	-0.0157955 	-2.60993e-24 	0.0135898 	0.00108744 	1.39436e-23 	0.010838 	-3.43002e-25 	0.0122141
3.9404 	-0.0493345 	0.713757 	-0.0142261 	-3.04538e-24 	0.0130105 	0.00164583 	1.61825e-23 	0.0104868 	-2.56105e-25 	0.0117488
3.98788 	-0.0493954 	0.708681 	-0.0127432 	3.72157e-25 	0.0125503 	0.00211792 	-1.80474e-24 	0.010244 	2.86912e-25 	0.0113973
4.03535 	-0.0494518 	0.702838 	-0.0113134 	-3.84342e-24 	0.0121343 	0.00254858 	1.85218e-23 	0.010039 	-2.01834e-26 	0.0110867
4.08283 	-0.0495031 	0.695377 	-0.00998715 	-4.29327e-24 	0.0117896 	0.00289219 	1.98445e-23 	0.00989446 	-2.16206e-25 	0.010842
4.1303 	-0.0495509 	0.686829 	-0.00874501 	-1.1261e-24 	0.0114806 	0.00317008 	5.26015e-24 	0.0097781 	-1.17552e-24 	0.0106293
4.17778 	-0.0495971 	0.677393 	-0.00757706 	3.14001e-24 	0.0111902 	0.00339024 	-1.44664e-23 	0.00967454 	-7.18867e-25 	0.0104323
4.22525 	-0.0496412 	0.666985 	-0.00650706 	7.11937e-24 	0.0109064 	0.00353895 	-3.27618e-23 	0.00957062 	1.05227e-26 	0.0102384
4.27273 	-0.049688 	0.65554 	-0.00551739 	3.51418e-24 	0.0106092 	0.0036227 	-1.60035e-23 	0.00944973 	9.7637e-25 	0.0100294
4.3202 	-0.0497339 	0.643259 	-0.00461648 	1.86143e-24 	0.0102886 	0.00364542 	-7.74926e-24 	0.00929981 	9.65409e-25 	0.00979415
4.36768 	-0.0497804 	0.630079 	-0.00379511 	-2.73869e-24 	0.00993258 	0.00361235 	1.10847e-23 	0.00910946 	3.11994e-25 	0.00952094
4.41515 	-0.0498257 	0.615883 	-0.00305813 	-1.80573e-24 	0.00952967 	0.00352378 	6.909e-24 	0.00886544 	-3.19927e-25 	0.00919746
4.46263 	-0.0498733 	0.600147 	-0.0023971 	1.28801e-24 	0.0090581 	0.00337987 	-4.44211e-24 	0.00854672 	1.62594e-25 	0.00880225
4.5101 	-0.0499181 	0.582651 	-0.0018123 	-2.53298e-24 	0.00851107 	0.0031884 	7.76339e-24 	0.00814344 	-4.27264e-25 	0.00832707
4.55758 	-0.0499599 	0.561758 	-0.00130928 	1.12845e-24 	0.00784036 	0.0029457 	-2.60161e-24 	0.00760492 	-1.89135e-25 	0.00772233
4.60505 	-0.0500015 	0.533794 	-0.000882225 	6.88803e-25 	0.00695716 	0.00265098 	-9.38164e-25 	0.0068395 	3.30357e-25 	0.00689824
4.65253 	-0.0500303 	0.4759 	-0.000511311 	5.0923e-25 	0.00534977 	0.00220712 	1.51367e-25 	0.00531657 	-2.58314e-25 	0.00533325
4.7 	-0.0500339 	0 	0 	0 	0.000262263 	0 	0 	0.000262263 	0 	0.000262263
