0 	0.00290959 	0 	0 	0 	1.49674e-12 	0 	0 	1.49674e-12 	0 	1.49674e-12
0.0474747 	0.00290952 	0.158893 	-3.84898e-05 	-2.40174e-24 	0.000968646 	-0.000114521 	-2.48601e-26 	0.000968935 	3.32519e-27 	0.000968789
0.0949495 	0.0029084 	0.223385 	-0.000109141 	2.16391e-24 	0.00100955 	-0.000305943 	1.6954e-25 	0.00101222 	1.57983e-26 	0.00101088
0.142424 	0.0029069 	0.246736 	-0.000183636 	2.76439e-25 	0.000882706 	-0.000347906 	1.18056e-25 	0.000888974 	-1.03874e-26 	0.000885843
0.189899 	0.00290442 	0.260808 	-0.000262744 	-4.13795e-25 	0.000860467 	-0.000367888 	-3.4193e-25 	0.000870407 	1.45757e-25 	0.000865437
0.237374 	0.00290335 	0.271156 	-0.000342421 	-7.59744e-24 	0.000872004 	-0.000384543 	-6.29898e-24 	0.000885433 	-1.91032e-25 	0.000878718
0.284848 	0.00290057 	0.27964 	-0.000424765 	4.85848e-24 	0.000896224 	-0.000400849 	4.66675e-24 	0.000913123 	-1.8842e-25 	0.000904673
0.332323 	0.00289817 	0.28685 	-0.000506723 	3.90157e-24 	0.000924954 	-0.000416848 	4.94193e-24 	0.000945221 	1.12266e-25 	0.000935086
0.379798 	0.00289599 	0.29316 	-0.000588031 	-1.81197e-24 	0.000955706 	-0.000432682 	-2.89394e-24 	0.000979241 	1.37809e-25 	0.000967473
0.427273 	0.00289344 	0.29884 	-0.000669238 	7.70639e-25 	0.00098768 	-0.00044852 	1.81799e-24 	0.0010144 	-2.35046e-25 	0.00100104
0.474747 	0.00289091 	0.304008 	-0.000749479 	5.01739e-24 	0.00102004 	-0.000464216 	8.43202e-24 	0.00104983 	1.64448e-25 	0.00103493
0.522222 	0.00288897 	0.308735 	-0.000827476 	-9.74698e-26 	0.00105198 	-0.000479517 	-7.8462e-25 	0.00108464 	9.4883e-25 	0.00106831
0.569697 	0.00288658 	0.313151 	-0.000904511 	-2.22729e-23 	0.00108375 	-0.000494609 	-4.30139e-23 	0.00111915 	-1.00202e-26 	0.00110145
0.617172 	0.0028834 	0.317347 	-0.000981734 	1.2793e-24 	0.00111586 	-0.000509757 	3.78495e-24 	0.00115386 	-1.23946e-24 	0.00113486
0.664646 	0.00288075 	0.321288 	-0.0010568 	1.31832e-23 	0.00114727 	-0.000524506 	2.8482e-23 	0.00118766 	-1.03007e-24 	0.00116746
0.712121 	0.00287852 	0.325 	-0.00112885 	1.27678e-23 	0.00117732 	-0.000538562 	2.90729e-23 	0.00121985 	6.81964e-25 	0.00119858
0.759596 	0.00287473 	0.328662 	-0.00120294 	2.40201e-24 	0.00120832 	-0.000552991 	5.03011e-24 	0.00125284 	8.40634e-25 	0.00123057
0.807071 	0.00287305 	0.332021 	-0.00127064 	-1.0761e-23 	0.00123653 	-0.000566089 	-2.66219e-23 	0.00128272 	6.68302e-25 	0.00125962
0.854545 	0.00286942 	0.335405 	-0.00134075 	-7.09068e-24 	0.00126556 	-0.000579507 	-1.78045e-23 	0.00131324 	-8.77411e-26 	0.0012894
0.90202 	0.0028676 	0.338544 	-0.00140526 	-1.75973e-25 	0.00129214 	-0.000591757 	-2.12884e-26 	0.00134104 	-9.21008e-25 	0.00131659
0.949495 	0.00286383 	0.341742 	-0.00147217 	4.2414e-24 	0.00131938 	-0.000604253 	1.22992e-23 	0.00136927 	-4.90519e-25 	0.00134433
0.99697 	0.0028622 	0.344679 	-0.00153237 	1.00539e-23 	0.00134362 	-0.000615341 	2.834e-23 	0.00139425 	9.91035e-26 	0.00136893
1.04444 	0.00285884 	0.34769 	-0.00159475 	4.42825e-24 	0.00136839 	-0.000626611 	1.20623e-23 	0.0014195 	4.52812e-25 	0.00139394
1.09192 	0.00285669 	0.350527 	-0.00165229 	-5.49949e-24 	0.00139078 	-0.000636765 	-1.60802e-23 	0.00144217 	6.92104e-25 	0.00141647
1.13939 	0.00285421 	0.353349 	-0.00170929 	-1.113e-23 	0.00141274 	-0.000646673 	-3.2047e-23 	0.00146415 	6.21964e-25 	0.00143845
1.18687 	0.0028507 	0.356188 	-0.00176554 	-6.5065e-24 	0.00143345 	-0.00065595 	-1.89322e-23 	0.00148458 	3.45479e-26 	0.00145901
1.23434 	0.00284906 	0.358818 	-0.00181633 	-2.28623e-24 	0.00145188 	-0.000664184 	-6.76276e-24 	0.00150264 	-5.01506e-25 	0.00147726
1.28182 	0.00284616 	0.361527 	-0.00186783 	8.62692e-25 	0.0014699 	-0.000672156 	2.535e-24 	0.00151994 	-6.48754e-25 	0.00149492
1.32929 	0.00284321 	0.364189 	-0.00191695 	2.64037e-24 	0.00148617 	-0.000679299 	8.08657e-24 	0.0015353 	-3.50168e-25 	0.00151073
1.37677 	0.00284148 	0.366703 	-0.00196203 	4.4554e-24 	0.00150069 	-0.00068564 	1.38308e-23 	0.00154884 	-6.84482e-26 	0.00152477
1.42424 	0.00283871 	0.369291 	-0.00200695 	4.17944e-24 	0.00151418 	-0.000691444 	1.29188e-23 	0.00156101 	6.33995e-26 	0.0015376
1.47172 	0.00283562 	0.371867 	-0.0020499 	1.15767e-24 	0.00152588 	-0.000696396 	3.51568e-24 	0.00157118 	7.55159e-26 	0.00154853
1.51919 	0.00283414 	0.374251 	-0.00208858 	-2.83519e-24 	0.00153609 	-0.000700692 	-8.62738e-24 	0.00157993 	2.45491e-25 	0.00155801
1.56667 	0.0028317 	0.376718 	-0.00212644 	-3.70149e-24 	0.00154476 	-0.000704212 	-1.12364e-23 	0.00158676 	2.84736e-25 	0.00156576
1.61414 	0.00282845 	0.37923 	-0.00216263 	-8.17481e-25 	0.00155117 	-0.000706656 	-2.43624e-24 	0.00159107 	1.29792e-25 	0.00157112
1.66162 	0.00282655 	0.381568 	-0.00219527 	-1.01279e-27 	0.00155644 	-0.000708615 	5.74636e-26 	0.00159436 	-3.23378e-26 	0.0015754
1.70909 	0.00282468 	0.383889 	-0.00222586 	4.55043e-27 	0.0015602 	-0.000709853 	9.17201e-26 	0.00159598 	-1.22744e-25 	0.00157809
1.75657 	0.00282215 	0.386263 	-0.00225487 	7.16004e-27 	0.00156194 	-0.000710126 	1.30681e-25 	0.00159531 	-1.07338e-25 	0.00157863
1.80404 	0.00281899 	0.388674 	-0.00228183 	1.19975e-26 	0.00156119 	-0.000709233 	1.75263e-25 	0.00159196 	2.87304e-26 	0.00157657
1.85152 	0.00281747 	0.39087 	-0.00230546 	8.16162e-27 	0.00155997 	-0.000708177 	9.34761e-26 	0.00158836 	2.59797e-26 	0.00157417
1.89899 	0.00281559 	0.393095 	-0.00232718 	-2.19147e-25 	0.00155676 	-0.000706179 	-6.39883e-25 	0.00158258 	1.83849e-26 	0.00156967
1.94646 	0.00281322 	0.395362 	-0.00234695 	-6.29503e-25 	0.0015513 	-0.000703121 	-1.89203e-24 	0.00157434 	1.55417e-26 	0.00156282
1.99394 	0.00281022 	0.397664 	-0.00236378 	-9.69057e-25 	0.0015424 	-0.000698478 	-2.87749e-24 	0.00156251 	2.18168e-26 	0.00155246
2.04141 	0.00280838 	0.399807 	-0.00237879 	-8.37376e-25 	0.00153374 	-0.000693985 	-2.48683e-24 	0.00155111 	1.93833e-26 	0.00154243
2.08889 	0.00280684 	0.401902 	-0.00239235 	-5.18349e-25 	0.00152434 	-0.00068916 	-1.55061e-24 	0.001539 	8.6677e-27 	0.00153167
2.13636 	0.00280464 	0.404055 	-0.00240219 	-1.43315e-25 	0.00151098 	-0.000682498 	-4.58099e-25 	0.00152268 	-2.59838e-26 	0.00151683
2.18384 	0.00280203 	0.406227 	-0.00240936 	3.88083e-26 	0.00149467 	-0.000674487 	7.23908e-26 	0.00150335 	-5.84706e-26 	0.00149901
2.23131 	0.00279928 	0.408395 	-0.00241484 	9.70292e-26 	0.0014767 	-0.000665723 	2.43004e-25 	0.00148234 	-8.78123e-26 	0.00147952
2.27879 	0.00279788 	0.410369 	-0.00241911 	3.5873e-26 	0.00145988 	-0.000657542 	7.98057e-26 	0.00146277 	-9.34551e-26 	0.00146133
2.32626 	0.00279626 	0.412328 	-0.00242143 	1.13888e-25 	0.00144136 	-0.000648592 	3.20052e-25 	0.00144149 	-9.05643e-26 	0.00144143
2.37374 	0.00279424 	0.414259 	-0.0024202 	4.45277e-25 	0.00141975 	-0.000638242 	1.29481e-24 	0.00141711 	-7.21372e-26 	0.00141843
2.42121 	0.00279188 	0.416138 	-0.00241587 	8.99925e-25 	0.00139534 	-0.000626649 	2.62807e-24 	0.00139003 	-3.90808e-26 	0.00139269
2.46869 	0.00278934 	0.417989 	-0.00240982 	1.42228e-24 	0.00136939 	-0.000614374 	4.15825e-24 	0.00136146 	2.01103e-27 	0.00136543
2.51616 	0.00278779 	0.420017 	-0.00240243 	1.99278e-24 	0.00134047 	-0.000600708 	5.84709e-24 	0.00132968 	9.70645e-26 	0.00133508
2.56364 	0.00278609 	0.422006 	-0.00239317 	2.21826e-24 	0.00131017 	-0.000586434 	6.5212e-24 	0.00129661 	1.69436e-25 	0.00130339
2.61111 	0.002784 	0.423906 	-0.00238095 	1.85621e-24 	0.00127793 	-0.00057132 	5.4652e-24 	0.00126175 	1.9647e-25 	0.00126984
2.65859 	0.00278151 	0.425659 	-0.00236576 	5.38478e-25 	0.00124386 	-0.00055545 	1.53941e-24 	0.00122539 	1.48101e-25 	0.00123462
2.70606 	0.00277926 	0.427429 	-0.00234928 	-1.51371e-24 	0.0012083 	-0.000538909 	-4.62644e-24 	0.00118754 	8.68068e-26 	0.00119792
2.75354 	0.0027779 	0.429328 	-0.00233099 	-4.99745e-24 	0.00116975 	-0.000520991 	-1.5184e-23 	0.00114657 	3.34197e-26 	0.00115816
2.80101 	0.00277593 	0.431105 	-0.00230941 	-5.75538e-24 	0.00112912 	-0.000502198 	-1.74656e-23 	0.00110381 	9.27303e-27 	0.00111647
2.84848 	0.00277359 	0.432782 	-0.00228626 	-4.4194e-24 	0.00108763 	-0.000483062 	-1.3396e-23 	0.00106041 	-6.19427e-27 	0.00107402
2.89596 	0.00277102 	0.434374 	-0.00226169 	-1.14447e-24 	0.00104521 	-0.000463559 	-3.4525e-24 	0.00101632 	-2.57165e-26 	0.00103076
2.94343 	0.00276974 	0.436116 	-0.00223394 	2.51632e-24 	0.000998196 	-0.000441959 	7.57007e-24 	0.000967504 	-1.85799e-25 	0.000982841
2.99091 	0.00276783 	0.437748 	-0.00220388 	3.5784e-24 	0.000949805 	-0.000419798 	1.07553e-23 	0.000917597 	-2.09589e-25 	0.000933691
3.03838 	0.0027654 	0.439259 	-0.00217262 	2.39934e-24 	0.0009009 	-0.00039747 	7.1972e-24 	0.000867471 	-1.08829e-25 	0.000884174
3.08586 	0.00276303 	0.44072 	-0.0021398 	3.46795e-25 	0.000850493 	-0.000374506 	1.01955e-24 	0.000816029 	5.35952e-26 	0.000833249
3.13333 	0.00276173 	0.442274 	-0.00210366 	-9.88507e-26 	0.000795772 	-0.000349596 	-2.90384e-25 	0.000760268 	1.49646e-25 	0.000778008
3.18081 	0.00275964 	0.443696 	-0.0020655 	-1.0044e-24 	0.000739899 	-0.000324235 	-2.78674e-24 	0.000703682 	1.6823e-25 	0.00072178
3.22828 	0.00275683 	0.444948 	-0.00202716 	-1.92044e-24 	0.000684443 	-0.000299135 	-5.3323e-24 	0.000647856 	1.4903e-25 	0.000666143
3.27576 	0.00275536 	0.446288 	-0.001985 	-1.29733e-24 	0.000624071 	-0.000271829 	-3.64049e-24 	0.000587153 	3.04794e-25 	0.00060561
3.32323 	0.00275353 	0.447531 	-0.00194063 	-1.02752e-24 	0.000562527 	-0.000244022 	-2.90132e-24 	0.000525472 	3.0212e-25 	0.000544002
3.37071 	0.00275087 	0.448596 	-0.00189626 	-2.47932e-24 	0.000502433 	-0.000216899 	-6.69168e-24 	0.000465455 	5.63431e-26 	0.000483948
3.41818 	0.00274931 	0.449671 	-0.00184843 	-7.88037e-24 	0.000438459 	-0.000188045 	-2.0087e-23 	0.000401669 	-2.1818e-25 	0.000420069
3.46566 	0.00274763 	0.450642 	-0.00179808 	-8.94298e-24 	0.000372844 	-0.000158422 	-2.24755e-23 	0.000336393 	-2.92086e-25 	0.000354624
3.51313 	0.00274494 	0.45139 	-0.00174842 	-1.29277e-24 	0.000309471 	-0.000129748 	-3.52296e-24 	0.000273482 	-1.2845e-25 	0.000291481
3.56061 	0.00274395 	0.452147 	-0.00169405 	9.283e-24 	0.000240807 	-9.86815e-05 	2.09598e-23 	0.000205395 	-2.14622e-26 	0.000223103
3.60808 	0.00274199 	0.452663 	-0.00163844 	7.62586e-24 	0.000176139 	-6.78084e-05 	1.72449e-23 	0.00014144 	7.68339e-27 	0.00015879
3.65556 	0.00273989 	0.452977 	-0.00158241 	-3.83709e-24 	0.000115213 	-3.70927e-05 	-7.78367e-24 	8.12833e-05 	-1.45099e-26 	9.82491e-05
3.70303 	0.00273886 	0.453177 	-0.00152188 	-9.83687e-24 	7.7422e-05 	-4.51577e-06 	-2.02041e-23 	4.4386e-05 	-8.74151e-26 	6.09048e-05
3.75051 	0.00273633 	0.453052 	-0.00146278 	-9.79216e-26 	0.000108368 	2.65836e-05 	-4.1407e-25 	7.62083e-05 	-1.72964e-25 	9.22902e-05
3.79798 	0.00273587 	0.45275 	-0.0013977 	1.15728e-23 	0.000159766 	6.02442e-05 	2.14737e-23 	0.000128616 	-3.55272e-25 	0.000144194
3.84545 	0.00273365 	0.452075 	-0.00133401 	6.67957e-24 	0.000223661 	9.22865e-05 	1.19456e-23 	0.000193468 	9.49237e-27 	0.000208569
3.89293 	0.00273326 	0.451115 	-0.00126521 	1.58111e-24 	0.000297757 	0.000126285 	2.95934e-24 	0.000268601 	6.56149e-25 	0.000283185
3.9404 	0.00273108 	0.44973 	-0.00119779 	-2.9142e-24 	0.000369183 	0.000158766 	-4.30576e-24 	0.000340963 	1.90273e-25 	0.000355078
3.98788 	0.00273106 	0.447935 	-0.00112463 	-1.24538e-23 	0.000445821 	0.000193495 	-2.03231e-23 	0.000418602 	-2.63837e-25 	0.000432214
4.03535 	0.00272965 	0.445634 	-0.00105275 	5.10488e-24 	0.000520854 	0.00022736 	8.04902e-24 	0.000494523 	3.61643e-26 	0.000507689
4.08283 	0.00272868 	0.44283 	-0.000978319 	4.23211e-24 	0.000597213 	0.000261767 	6.9989e-24 	0.000571855 	7.76295e-27 	0.000584531
4.1303 	0.00272837 	0.439429 	-0.000901973 	-1.29103e-23 	0.000674194 	0.000296381 	-2.02685e-23 	0.000649893 	-1.27519e-25 	0.00066204
4.17778 	0.00272733 	0.435392 	-0.000825752 	8.68919e-24 	0.000749526 	0.000330154 	1.37438e-23 	0.000726377 	-4.21485e-25 	0.000737949
4.22525 	0.00272584 	0.430637 	-0.000748948 	6.18203e-24 	0.000823863 	0.00036334 	9.72294e-24 	0.000802001 	7.66653e-26 	0.000812931
4.27273 	0.00272504 	0.425009 	-0.000670457 	-5.71134e-25 	0.000898415 	0.000396415 	-8.041e-25 	0.000878003 	2.13825e-25 	0.000888208
4.3202 	0.00272433 	0.418371 	-0.000591422 	-2.66789e-25 	0.000972074 	0.000428731 	-4.62221e-25 	0.00095328 	-1.58188e-25 	0.000962676
4.36768 	0.00272327 	0.410549 	-0.000512577 	2.846e-24 	0.00104435 	0.000459797 	4.39779e-24 	0.00102735 	1.45956e-25 	0.00103585
4.41515 	0.00272253 	0.401173 	-0.000433475 	1.02058e-24 	0.00111627 	0.000489512 	1.28676e-24 	0.00110128 	-1.54467e-25 	0.00110878
4.46263 	0.00272222 	0.38974 	-0.000354345 	4.88654e-25 	0.00118933 	0.00051727 	6.7681e-25 	0.00117658 	1.79415e-25 	0.00118296
4.5101 	0.00272005 	0.375528 	-0.000277351 	-9.1893e-25 	0.00126718 	0.000541147 	-9.30511e-25 	0.00125692 	-3.04522e-26 	0.00126205
4.55758 	0.00271937 	0.356335 	-0.00020043 	4.19416e-25 	0.00137108 	0.00055921 	5.41901e-25 	0.00136368 	7.18868e-26 	0.00136738
4.60505 	0.00271756 	0.32677 	-0.000125635 	-7.51891e-26 	0.0015821 	0.00055643 	-2.44545e-25 	0.00157797 	-1.19952e-25 	0.00158003
4.65253 	0.00271622 	0.254448 	-5.08841e-05 	-1.74636e-24 	0.00196817 	0.000355485 	-4.79533e-26 	0.00196732 	2.73663e-26 	0.00196775
4.7 	0.00271554 	0 	0 	0 	1.60991e-11 	0 	0 	1.60991e-11 	0 	1.60991e-11
