# U  POINT_DATA 1869
# x y z  U_x U_y U_z
30.6966 0.00979983 1.88755 -3.64805e-18 -2.47444e-05 -1.02147e-23
30.6966 0.00979983 0.210185 -3.36103e-18 -2.47444e-05 -1.02147e-23
30.5968 0.0129513 0 1.11944e-17 -3.73332e-05 -2.37723e-23
30.6966 0.00979983 -1.88755 -3.63208e-18 -2.47444e-05 -1.02147e-23
30.4871 0.0134242 -1.88755 -2.95987e-17 -4.75481e-05 -3.27086e-24
30.4871 0.0134242 -0.62437 -3.99557e-18 -4.75481e-05 -3.27086e-24
30.4871 0.0134242 1.88755 1.0842e-19 -4.75481e-05 -3.27086e-24
30.5458 0.0114847 1.88755 3.1481e-18 -3.49867e-05 1.40098e-24
30.5458 0.0114847 -1.88755 3.14419e-18 -3.49867e-05 1.40098e-24
30.4871 1.51857e-15 1.88755 0 0 0
30.4871 1.51857e-15 -1.88755 0 0 0
30.8642 1.53745e-15 1.88755 0 0 0
30.8642 1.53745e-15 -1.88755 0 0 0
30.7755 0.0074946 0.999296 -1.70053e-18 -1.457e-05 -1.0364e-23
30.7755 0.0074946 -0.999296 -1.8055e-18 -1.457e-05 -1.0364e-23
30.2808 0.0206314 1.88755 2.06876e-17 -9.41606e-05 -2.13448e-23
30.1927 0.0229097 -1.16934 -2.71051e-18 -0.000112656 -5.56479e-23
30.1927 0.0229097 1.16934 -2.92735e-18 -0.000112656 -5.56479e-23
30.2808 0.0206314 -0.254308 2.13072e-17 -9.41606e-05 -2.13448e-23
30.2808 0.0206314 -1.88755 2.13588e-17 -9.41606e-05 -2.13448e-23
30.1235 0.0235132 -1.88755 6.50521e-19 -0.000126785 -2.05612e-23
30.1235 0.0235132 -0.97878 6.50521e-19 -0.000126785 -2.05612e-23
30.1235 0.0235132 1.88755 6.50521e-19 -0.000126785 -2.05612e-23
30.1724 0.0222435 1.88755 -1.06252e-17 -0.000111786 -2.45578e-23
30.1724 0.0222435 -1.88755 -1.01257e-17 -0.000111786 -2.45578e-23
30.3373 0.0161671 1.88755 -1.10589e-17 -6.47915e-05 2.37218e-25
30.3957 0.0179091 0 7.58942e-18 -6.97538e-05 1.77473e-23
30.3373 0.0161671 -1.88755 -1.09565e-17 -6.47915e-05 2.37218e-25
30.1235 1.50036e-15 1.88755 0 0 0
30.1235 1.50036e-15 -1.88755 0 0 0
29.7897 0.0326024 1.88755 1.03515e-17 -0.000233869 1.59378e-23
29.7791 0.0328442 -1.81858 -7.69784e-18 -0.000237219 2.15753e-23
29.7791 0.0328442 1.81858 -7.72494e-18 -0.000237219 2.15753e-23
29.7897 0.0326024 -1.70429 1.05435e-17 -0.000233869 1.59378e-23
29.7897 0.0326024 -1.88755 1.01644e-17 -0.000233869 1.59378e-23
29.7727 0.0329502 -1.88755 1.16552e-18 -0.000239904 1.67338e-23
29.7727 0.0329502 -1.78832 1.16552e-18 -0.000239904 1.67338e-23
29.7727 0.0329502 1.88755 -3.2255e-18 -0.000239904 1.67338e-23
29.7782 0.0328115 1.88755 2.47129e-17 -0.000237383 1.68645e-23
29.7782 0.0328115 -1.88755 2.4259e-17 -0.000237383 1.68645e-23
29.9533 0.026795 1.88755 3.39225e-17 -0.000163874 -7.63277e-24
29.9973 0.0282987 0 1.25767e-17 -0.000168007 -6.09876e-23
29.9533 0.026795 -1.88755 3.38271e-17 -0.000163874 -7.63277e-24
29.7727 1.48279e-15 1.88755 0 0 0
29.7727 1.48279e-15 -1.88755 0 0 0
29.5834 0.0384347 0 1.38236e-17 -0.000316912 -2.34685e-25
29.7297 0.034284 1.40789 -1.55169e-17 -0.000257822 1.23955e-23
29.7297 0.034284 -1.40789 -1.55312e-17 -0.000257822 1.23955e-23
29.4343 0.0412248 -1.88755 6.09322e-17 -0.000387785 9.65431e-24
29.4343 0.0412248 0.572505 3.79471e-17 -0.000387785 9.65431e-24
29.4343 0.0412248 1.88755 -2.81893e-18 -0.000387785 9.65431e-24
29.5597 0.0375053 1.88755 9.79567e-18 -0.000318768 6.53743e-24
29.5597 0.0375053 -1.88755 9.97466e-18 -0.000318768 6.53743e-24
29.4343 1.46585e-15 1.88755 0 0 0
29.4343 1.46585e-15 -1.88755 0 0 0
29.2849 0.0458336 1.88755 1.18044e-17 -0.000473025 2.92085e-23
29.1776 0.0489581 -1.08133 3.63906e-17 -0.000536259 2.57901e-23
29.1776 0.0489581 1.08133 3.58323e-17 -0.000536259 2.57901e-23
29.2849 0.0458336 0.160245 -4.94396e-17 -0.000473025 2.92085e-23
29.2849 0.0458336 -1.88755 1.14925e-17 -0.000473025 2.92085e-23
29.1079 0.0513187 -1.88755 -6.89553e-17 -0.000593342 2.73573e-23
29.1079 0.0513187 -0.472133 -6.91721e-17 -0.000593342 2.73573e-23
29.1079 0.0513187 1.88755 -6.91721e-17 -0.000593342 2.73573e-23
29.1771 0.0489356 1.88755 -4.85723e-17 -0.000539386 3.30814e-23
29.1771 0.0489356 -1.88755 -4.85148e-17 -0.000539386 3.30814e-23
29.3644 0.0429996 1.88755 4.04781e-17 -0.000419404 1.57845e-23
29.3754 0.0434488 1.2069 -2.95067e-17 -0.000419752 3.30402e-23
29.3644 0.0429996 -1.88755 4.03323e-17 -0.000419404 1.57845e-23
29.3754 0.0434488 -1.2069 -3.06658e-17 -0.000419752 3.30402e-23
29.1079 1.4495e-15 1.88755 0 0 0
29.1079 1.4495e-15 -1.88755 0 0 0
28.851 0.0604619 1.88755 8.82541e-17 -0.000799511 -2.08642e-24
28.8188 0.0617872 -1.57831 -1.71304e-17 -0.000828638 -1.07856e-23
28.8188 0.0617872 1.57831 -1.71304e-17 -0.000828638 -1.07856e-23
28.851 0.0604619 -1.1923 1.7869e-17 -0.000799511 -2.08642e-24
28.851 0.0604619 -1.88755 8.81456e-17 -0.000799511 -2.08642e-24
28.793 0.0630906 -1.88755 7.64363e-17 -0.000859985 -5.41682e-24
28.793 0.0630906 -1.27417 8.16404e-17 -0.000859985 -5.41682e-24
28.793 0.0630906 1.88755 3.36103e-18 -0.000859985 -5.41682e-24
28.8196 0.0618254 1.88755 2.17537e-17 -0.000830183 -3.81402e-24
28.8196 0.0618254 -1.88755 2.19009e-17 -0.000830183 -3.81402e-24
28.9916 0.0550576 1.88755 1.04788e-17 -0.000675121 9.45282e-24
28.9938 0.0551636 0 -1.40946e-18 -0.0006711 3.3359e-23
28.9916 0.0550576 -1.88755 1.0842e-17 -0.000675121 9.45282e-24
28.793 1.43374e-15 1.88755 0 0 0
28.793 1.43374e-15 -1.88755 0 0 0
28.5169 0.0766388 1.88755 -4.0569e-17 -0.00117783 -1.17003e-23
28.5032 0.0774577 -1.71477 -1.37694e-17 -0.00119603 -9.64107e-24
28.5032 0.0774577 1.71477 -1.36609e-17 -0.00119603 -9.64107e-24
28.5169 0.0766388 -1.54451 -4.53197e-17 -0.00117783 -1.17003e-23
28.5169 0.0766388 -1.88755 -4.09828e-17 -0.00117783 -1.17003e-23
28.4893 0.078368 -1.88755 3.14419e-18 -0.00121873 -9.86826e-24
28.4893 0.078368 -1.52268 3.25261e-18 -0.00121873 -9.86826e-24
28.4893 0.078368 1.88755 3.25261e-18 -0.00121873 -9.86826e-24
28.5034 0.0774668 1.88755 7.48244e-18 -0.00119698 -1.02349e-23
28.5034 0.0774668 -1.88755 7.58942e-18 -0.00119698 -1.02349e-23
28.6576 0.0694238 1.88755 3.51332e-17 -0.00100521 -1.251e-23
28.6546 0.069263 0 2.95445e-17 -0.000997239 -1.98942e-24
28.6576 0.0694238 -1.88755 3.46945e-17 -0.00100521 -1.251e-23
28.4893 1.41853e-15 1.88755 0 0 0
28.4893 1.41853e-15 -1.88755 0 0 0
28.2437 0.0945286 1.88755 4.02433e-17 -0.00160707 6.76304e-24
28.2215 0.0962262 -1.56367 5.48508e-17 -0.00164635 1.24295e-23
28.2215 0.0962262 1.56367 -2.68882e-17 -0.00164635 1.24295e-23
28.2437 0.0945286 -1.2782 3.49145e-17 -0.00160707 6.76304e-24
28.2437 0.0945286 -1.88755 3.9465e-17 -0.00160707 6.76304e-24
28.1964 0.0981412 -1.88755 2.49366e-18 -0.00169642 7.33603e-24
28.1964 0.0981412 -1.19825 -1.30104e-18 -0.00169642 7.33603e-24
28.1964 0.0981412 1.88755 -9.75782e-19 -0.00169642 7.33603e-24
28.2213 0.0962146 1.88755 3.93616e-17 -0.00164789 8.49807e-24
28.2213 0.0962146 -1.88755 3.89229e-17 -0.00164789 8.49807e-24
28.3605 0.0866596 1.88755 3.42622e-17 -0.00141416 -9.06407e-24
28.3596 0.0866035 -6.93889e-17 -1.9892e-17 -0.00140513 -3.794e-23
28.3605 0.0866596 -1.88755 3.38271e-17 -0.00141416 -9.06407e-24
28.1964 1.40386e-15 1.88755 0 0 0
28.1964 1.40386e-15 -1.88755 0 0 0
27.9916 0.114312 1.88755 9.01286e-18 -0.00210208 5.77318e-24
27.9552 0.117518 -1.33444 -3.92481e-17 -0.00217982 5.21305e-24
27.9552 0.117518 1.33444 -3.92481e-17 -0.00217982 5.21305e-24
27.9916 0.114312 -0.847542 8.89046e-18 -0.00210208 5.77318e-24
27.9916 0.114312 -1.88755 -7.7412e-17 -0.00210208 5.77318e-24
27.9138 0.120948 -1.88755 8.73867e-17 -0.00227315 7.37593e-24
27.9138 0.120948 -0.742585 8.43509e-17 -0.00227315 7.37593e-24
27.9138 0.120948 1.88755 -2.1684e-19 -0.00227315 7.37593e-24
27.9545 0.117465 1.88755 3.90313e-18 -0.00218176 6.17135e-24
27.9545 0.117465 -1.88755 3.68629e-18 -0.00218176 6.17135e-24
28.0873 0.106675 1.88755 2.90239e-17 -0.00190673 7.82724e-24
28.0883 0.106745 -2.77556e-17 -4.59876e-17 -0.00189997 3.67433e-25
28.0873 0.106675 -1.88755 2.86229e-17 -0.00190673 7.82724e-24
27.9138 1.38971e-15 1.88755 0 0 0
27.9138 1.38971e-15 -1.88755 0 0 0
27.7393 0.136189 1.88755 4.77049e-18 -0.00267121 5.8324e-24
27.6919 0.140689 -1.18534 5.0033e-17 -0.00278436 3.12642e-24
27.6919 0.140689 1.18534 5.0955e-17 -0.00278436 3.12642e-24
27.7393 0.136189 -0.528991 4.55365e-18 -0.00267121 5.8324e-24
27.7393 0.136189 -1.88755 3.90313e-18 -0.00267121 5.8324e-24
27.6412 0.145104 -1.88755 6.50521e-19 -0.00290829 1.01558e-23
27.6412 0.145104 -0.49644 4.33681e-19 -0.00290829 1.01558e-23
27.6412 0.145104 1.88755 6.50521e-19 -0.00290829 1.01558e-23
27.6909 0.140595 1.88755 -3.42608e-17 -0.00278627 3.24691e-24
27.6909 0.140595 -1.88755 -3.47187e-17 -0.00278627 3.24691e-24
27.8227 0.128879 1.88755 -7.41594e-17 -0.00247682 5.35103e-24
27.8243 0.12901 0 -7.15573e-18 -0.00247261 2.18947e-23
27.8227 0.128879 -1.88755 -7.3808e-17 -0.00247682 5.35103e-24
27.6412 1.37606e-15 1.88755 0 0 0
27.6412 1.37606e-15 -1.88755 0 0 0
27.4762 0.16038 1.88755 -3.67129e-17 -0.00331944 1.97008e-23
27.4267 0.16531 -1.19196 9.40371e-17 -0.00344667 1.26931e-23
27.4267 0.16531 1.19196 9.44397e-17 -0.00344667 1.26931e-23
27.4762 0.16038 -0.481586 -3.68629e-17 -0.00331944 1.97008e-23
27.4762 0.16038 -1.88755 -3.62124e-17 -0.00331944 1.97008e-23
27.3783 0.169673 -1.88755 9.21572e-17 -0.00357252 7.52852e-24
27.3783 0.169673 -0.576196 8.78204e-17 -0.00357252 7.52852e-24
27.3783 0.169673 1.88755 5.85469e-18 -0.00357252 7.52852e-24
27.4256 0.165197 1.88755 -2.23346e-17 -0.00344844 1.30298e-23
27.4256 0.165197 -1.88755 -2.21677e-17 -0.00344844 1.30298e-23
27.5585 0.152769 1.88755 -6.02816e-17 -0.00311118 1.50307e-23
27.5603 0.152935 0 8.89046e-18 -0.00310804 4.08243e-23
27.5585 0.152769 -1.88755 -6.08396e-17 -0.00311118 1.50307e-23
27.3783 1.36289e-15 1.88755 0 0 0
27.3783 1.36289e-15 -1.88755 0 0 0
27.1968 0.187131 1.88755 -4.07466e-17 -0.00405326 -7.81628e-24
27.1585 0.191084 -1.38318 -8.50441e-17 -0.00415746 -2.17826e-23
27.1585 0.191084 1.38318 -8.52183e-17 -0.00415746 -2.17826e-23
27.1968 0.187131 -0.812861 -4.0766e-17 -0.00405326 -7.81628e-24
27.1968 0.187131 -1.88755 -4.0766e-17 -0.00405326 -7.81628e-24
27.1246 0.194215 -1.88755 -5.20417e-18 -0.00424992 -4.9589e-24
27.1246 0.194215 -0.983559 -5.42101e-18 -0.00424992 -4.9589e-24
27.1246 0.194215 1.88755 1.51788e-18 -0.00424992 -4.9589e-24
27.1577 0.190989 1.88755 3.95028e-17 -0.00415873 -5.53592e-24
27.1577 0.190989 -1.88755 3.9465e-17 -0.00415873 -5.53592e-24
27.2919 0.178018 1.88755 9.23768e-18 -0.00379848 -8.38265e-24
27.2939 0.178232 0 -8.8921e-17 -0.00379537 1.18547e-23
27.2919 0.178018 -1.88755 9.1073e-18 -0.00379848 -8.38265e-24
27.1246 1.35019e-15 1.88755 0 0 0
27.1246 1.35019e-15 -1.88755 0 0 0
26.8976 0.216712 1.88755 -6.89442e-17 -0.00488093 1.33086e-25
26.8878 0.217755 -1.76723 -3.40982e-17 -0.00490888 -8.42501e-25
26.8878 0.217755 1.76723 -3.40982e-17 -0.00490888 -8.42501e-25
26.8976 0.216712 -1.61556 1.87318e-17 -0.00488093 1.33086e-25
26.8976 0.216712 -1.88755 -6.89553e-17 -0.00488093 1.33086e-25
26.88 0.21849 -1.88755 1.68051e-18 -0.00493105 2.9244e-25
26.88 0.21849 -1.68235 1.68051e-18 -0.00493105 2.9244e-25
26.88 0.21849 1.88755 1.68051e-18 -0.00493105 2.9244e-25
26.8876 0.217729 1.88755 -1.20889e-17 -0.00490919 7.59338e-25
26.8876 0.217729 -1.88755 -1.234e-17 -0.00490919 7.59338e-25
27.0227 0.204382 1.88755 -1.0842e-17 -0.00453024 -1.06527e-24
27.0251 0.204681 0 1.07011e-16 -0.00452633 1.91967e-23
27.0227 0.204382 -1.88755 -1.0842e-17 -0.00453024 -1.06527e-24
26.88 1.33794e-15 1.88755 0 0 0
26.88 1.33794e-15 -1.88755 0 0 0
26.7544 0.232019 1.38778e-17 -5.47522e-17 -0.00529392 -4.24249e-25
26.821 0.224888 0.944111 -4.521e-17 -0.0051017 3.16467e-25
26.821 0.224888 -0.944111 -4.48589e-17 -0.0051017 3.16467e-25
26.644 0.242491 -1.88755 3.46945e-18 -0.00561156 2.86899e-24
26.644 0.242491 1.08752 3.03577e-18 -0.00561156 2.86899e-24
26.644 0.242491 1.88755 -8.67362e-17 -0.00561156 2.86899e-24
26.7516 0.231629 1.88755 4.33681e-19 -0.0052985 -6.15988e-24
26.7516 0.231629 -1.88755 1.73472e-18 -0.0052985 -6.15988e-24
26.644 1.32612e-15 1.88755 0 0 0
26.644 1.32612e-15 -1.88755 0 0 0
26.5762 0.249423 1.88755 3.43106e-17 -0.00580945 7.16345e-24
26.5762 0.249423 0.763347 3.48668e-17 -0.00580945 7.16345e-24
26.4815 0.259781 0 -7.18826e-17 -0.00609159 3.23586e-23
26.5762 0.249423 -1.88755 3.49113e-17 -0.00580945 7.16345e-24
26.4164 0.26605 -1.88755 3.03577e-18 -0.00628459 1.23486e-23
26.4164 0.26605 -0.152414 3.03577e-18 -0.00628459 1.23486e-23
26.4164 0.26605 1.88755 -1.0842e-17 -0.00628459 1.23486e-23
26.4798 0.259512 1.88755 6.50521e-18 -0.00609442 9.96233e-24
26.4798 0.259512 -1.88755 6.07153e-18 -0.00609442 9.96233e-24
26.6159 0.245387 1.88755 -3.46945e-18 -0.0056929 3.05626e-24
26.6166 0.24549 1.43358 -9.56653e-17 -0.00569173 -2.24086e-24
26.6159 0.245387 -1.88755 8.67362e-17 -0.0056929 3.05626e-24
26.6166 0.24549 -1.43358 -5.65201e-18 -0.00569173 -2.24086e-24
26.4164 1.31472e-15 1.88755 0 0 0
26.4164 1.31472e-15 -1.88755 0 0 0
26.2288 0.285596 1.88755 7.48099e-18 -0.00684679 1.39503e-23
26.2089 0.287808 -1.67879 -6.42932e-17 -0.00690743 9.84187e-24
26.2089 0.287808 1.67879 -6.44016e-17 -0.00690743 9.84187e-24
26.2288 0.285596 -1.33752 8.34836e-18 -0.00684679 1.39503e-23
26.2288 0.285596 -1.88755 8.5652e-18 -0.00684679 1.39503e-23
26.1968 0.288988 -1.88755 8.64109e-17 -0.00694418 1.23197e-23
26.1968 0.288988 -1.56743 8.08815e-17 -0.00694418 1.23197e-23
26.1968 0.288988 1.88755 -1.73472e-18 -0.00694418 1.23197e-23
26.2086 0.287749 1.88755 -6.60279e-17 -0.00690798 1.26422e-23
26.2086 0.287749 -1.88755 -6.7248e-17 -0.00690798 1.26422e-23
26.344 0.273669 1.88755 -2.0383e-17 -0.00650019 1.3342e-23
26.3458 0.273979 0 -6.50521e-18 -0.00649699 3.81944e-23
26.344 0.273669 -1.88755 -2.26128e-17 -0.00650019 1.3342e-23
26.1968 1.30373e-15 1.88755 0 0 0
26.1968 1.30373e-15 -1.88755 0 0 0
26.0756 0.302705 5.55112e-17 -2.74845e-17 -0.00731602 1.00657e-24
26.1508 0.29429 1.06712 -8.15675e-18 -0.00708579 7.92025e-24
26.1508 0.29429 -1.06712 -6.83047e-18 -0.00708579 7.92025e-24
25.985 0.311508 -1.88755 -3.03577e-18 -0.00759017 2.45037e-24
25.985 0.311508 0.557775 -3.03577e-18 -0.00759017 2.45037e-24
25.985 0.311508 1.88755 1.04083e-17 -0.00759017 2.45037e-24
26.0731 0.302238 1.88755 -8.67362e-18 -0.00732026 1.60043e-24
26.0731 0.302238 -1.88755 -1.07931e-17 -0.00732026 1.60043e-24
25.985 1.29312e-15 1.88755 0 0 0
25.985 1.29312e-15 -1.88755 0 0 0
25.8522 0.325597 1.88755 -6.39945e-17 -0.00799492 4.39748e-24
25.8053 0.330927 -1.43274 -5.48606e-17 -0.00814059 5.13776e-24
25.8053 0.330927 1.43274 -5.48606e-17 -0.00814059 5.13776e-24
25.8522 0.325597 -0.56506 2.72829e-17 -0.00799492 4.39748e-24
25.8522 0.325597 -1.88755 -6.33174e-17 -0.00799492 4.39748e-24
25.7807 0.33333 -1.88755 1.30104e-18 -0.00821582 5.68626e-24
25.7807 0.33333 -1.22771 1.73472e-18 -0.00821582 5.68626e-24
25.7807 0.33333 1.88755 1.30104e-18 -0.00821582 5.68626e-24
25.8046 0.330779 1.88755 -1.60462e-17 -0.00814175 7.23424e-24
25.8046 0.330779 -1.88755 -1.64945e-17 -0.00814175 7.23424e-24
25.9385 0.316498 1.88755 -4.46691e-17 -0.00773143 5.26031e-38
25.9398 0.316745 1.05203 -7.632e-17 -0.00772923 1.13231e-37
25.9385 0.316498 -1.88755 -4.71838e-17 -0.00773143 5.09123e-38
25.9398 0.316745 -1.05203 -7.89382e-17 -0.00772923 1.11406e-37
25.7807 1.28289e-15 1.88755 0 0 0
25.7807 1.28289e-15 -1.88755 0 0 0
25.5836 0.354599 -1.88755 8.76035e-17 -0.00882074 -1.81389e-24
25.5836 0.354599 0.587407 7.89299e-17 -0.00882074 -1.81389e-24
25.6908 0.34389 0.0551245 8.56113e-17 -0.00849465 2.35862e-23
25.5836 0.354599 1.88755 -8.67362e-17 -0.00882074 -1.81389e-24
25.6711 0.345252 1.88755 -1.77809e-17 -0.00855169 4.35639e-24
25.6711 0.345252 -1.88755 -1.56599e-17 -0.00855169 4.35639e-24
25.5836 1.27302e-15 1.88755 0 0 0
25.5836 1.27302e-15 -1.88755 0 0 0
25.4418 0.369832 1.88755 -1.1847e-17 -0.00925202 -1.76188e-24
25.4084 0.373671 -1.59141 -1.19262e-17 -0.00935523 -8.26177e-26
25.4084 0.373671 1.59141 -1.17094e-17 -0.00935523 -8.26177e-26
25.4418 0.369832 -0.927836 -1.19262e-17 -0.00925202 -1.76188e-24
25.4418 0.369832 -1.88755 -1.2902e-17 -0.00925202 -1.76188e-24
25.3935 0.375119 -1.88755 -1.17094e-17 -0.00940034 6.83671e-25
25.3935 0.375119 -1.47965 -1.15673e-17 -0.00940034 6.83671e-25
25.3935 0.375119 1.88755 -1.17094e-17 -0.00940034 6.83671e-25
25.408 0.373559 1.88755 -2.1684e-19 -0.00935594 -1.28213e-25
25.408 0.373559 -1.88755 -1.35415e-18 -0.00935594 -1.28213e-25
25.539 0.359455 1.88755 -1.51788e-17 -0.00895649 -2.98735e-24
25.5402 0.359748 1.02678 -4.44562e-18 -0.00895427 -1.67808e-23
25.539 0.359455 -1.88755 -1.45703e-17 -0.00895649 -2.98735e-24
25.5402 0.359748 -1.02678 -1.78388e-18 -0.00895427 -1.67808e-23
25.3935 1.2635e-15 1.88755 0 0 0
25.3935 1.2635e-15 -1.88755 0 0 0
25.2797 0.388407 -5.55112e-17 7.91468e-18 -0.0097481 2.33377e-23
25.3572 0.379515 1.14046 1.92583e-17 -0.00951184 1.12131e-23
25.3572 0.379515 -1.14046 1.96915e-17 -0.00951184 1.12131e-23
25.2101 0.395129 -1.88755 -8.67362e-18 -0.00995558 3.52849e-24
25.2101 0.395129 0.0644898 -8.67362e-18 -0.00995558 3.52849e-24
25.2101 0.395129 1.88755 -8.97719e-17 -0.00995558 3.52849e-24
25.2777 0.387856 1.88755 -9.71445e-17 -0.00975156 7.12575e-24
25.2777 0.387856 -1.88755 -7.44875e-18 -0.00975156 7.12575e-24
25.2101 1.25432e-15 1.88755 0 0 0
25.2101 1.25432e-15 -1.88755 0 0 0
25.058 0.411911 -1.35961 -3.13047e-17 -0.010409 -5.0137e-24
25.0332 0.414284 -1.88755 9.18319e-17 -0.0104814 -6.32481e-24
25.058 0.411911 1.35961 -3.00718e-17 -0.010409 -5.0137e-24
25.0332 0.414284 1.54278 8.0231e-17 -0.0104814 -6.32481e-24
25.0332 0.414284 1.88755 8.98804e-17 -0.0104814 -6.32481e-24
25.1507 0.402337 0 -5.45279e-18 -0.0101351 5.74244e-26
25.149 0.401841 1.88755 -2.08167e-17 -0.0101382 1.14271e-25
25.149 0.401841 -1.88755 -1.98278e-17 -0.0101382 1.14271e-25
25.0332 1.24546e-15 1.88755 0 0 0
25.0332 1.24546e-15 -1.88755 0 0 0
24.9918 0.418751 1.88755 -2.60455e-17 -0.0106019 -5.57634e-24
24.897 0.429673 -1.12551 2.82738e-17 -0.0108813 -7.49945e-25
24.897 0.429673 1.12551 2.76225e-17 -0.0108813 -7.49945e-25
24.9918 0.418751 0.971276 -2.61293e-17 -0.0106019 -5.57634e-24
24.9918 0.418751 -1.88755 -2.66714e-17 -0.0106019 -5.57634e-24
24.8626 0.43294 -1.88755 2.1684e-18 -0.0109798 3.09557e-24
24.8626 0.43294 -0.897514 1.73472e-18 -0.0109798 3.09557e-24
24.8626 0.43294 1.88755 2.1684e-18 -0.0109798 3.09557e-24
24.896 0.429335 1.88755 -4.0766e-17 -0.0108829 1.4433e-24
24.896 0.429335 -1.88755 -4.14065e-17 -0.0108829 1.4433e-24
25.022 0.415518 1.88755 -5.33427e-17 -0.0105144 -7.62309e-24
25.0223 0.415615 1.64545 -2.1421e-17 -0.0105139 -6.06775e-24
25.022 0.415518 -1.88755 -5.61929e-17 -0.0105144 -7.62309e-24
25.0223 0.415615 -1.64545 -2.45874e-17 -0.0105139 -6.06775e-24
24.8626 1.23692e-15 1.88755 0 0 0
24.8626 1.23692e-15 -1.88755 0 0 0
24.698 0.450876 -1.88755 -1.73472e-18 -0.0114479 9.27265e-25
24.698 0.450876 0.354099 -1.73472e-18 -0.0114479 9.27265e-25
24.7837 0.442624 0.0258374 -1.1582e-16 -0.0112087 5.50823e-23
24.698 0.450876 1.88755 9.93129e-17 -0.0114479 9.27265e-25
24.7716 0.442951 1.88755 8.11034e-17 -0.0112402 1.20666e-24
24.7716 0.442951 -1.88755 -1.09759e-17 -0.0112402 1.20666e-24
24.698 1.22867e-15 1.88755 0 0 0
24.698 1.22867e-15 -1.88755 0 0 0
24.5588 0.466201 -1.42358 2.81893e-17 -0.0118319 7.15639e-24
24.5393 0.468015 -1.88755 1.30104e-18 -0.0118845 8.5595e-24
24.5588 0.466201 1.42358 3.00324e-17 -0.0118319 7.15639e-24
24.5393 0.468015 1.55022 1.51788e-18 -0.0118845 8.5595e-24
24.5393 0.468015 1.88755 1.73472e-18 -0.0118845 8.5595e-24
24.6507 0.456736 0 -6.50975e-17 -0.0115815 3.46052e-24
24.6492 0.456223 1.88755 1.34724e-16 -0.0115839 5.64981e-24
24.6492 0.456223 -1.88755 1.32273e-16 -0.0115839 5.64981e-24
24.5393 1.22072e-15 1.88755 0 0 0
24.5393 1.22072e-15 -1.88755 0 0 0
24.4942 0.472849 1.88755 -7.4744e-17 -0.0120041 1.2001e-23
24.4106 0.482422 -1.28356 2.24219e-17 -0.0122282 1.94081e-24
24.4106 0.482422 1.28356 2.19873e-17 -0.0122282 1.94081e-24
24.4942 0.472849 0.776887 1.47692e-17 -0.0120041 1.2001e-23
24.4942 0.472849 -1.88755 -7.51352e-17 -0.0120041 1.2001e-23
24.3861 0.484646 -1.88755 5.63785e-18 -0.0122908 1.30422e-23
24.3861 0.484646 -1.14319 5.63785e-18 -0.0122908 1.30422e-23
24.3861 0.484646 1.88755 5.63785e-18 -0.0122908 1.30422e-23
24.4098 0.482107 1.88755 6.87827e-17 -0.0122291 1.39909e-23
24.4098 0.482107 -1.88755 6.89553e-17 -0.0122291 1.39909e-23
24.5288 0.469155 1.88755 -4.11997e-18 -0.0119128 8.71027e-24
24.5291 0.469271 1.63782 2.49868e-17 -0.0119122 1.75209e-23
24.5288 0.469155 -1.88755 -5.63785e-18 -0.0119128 8.71027e-24
24.5291 0.469271 -1.63782 2.49366e-17 -0.0119122 1.75209e-23
24.3861 1.21306e-15 1.88755 0 0 0
24.3861 1.21306e-15 -1.88755 0 0 0
24.2384 0.500625 -1.88755 -1.30104e-18 -0.0126654 1.01794e-23
24.2384 0.500625 -0.134952 -1.30104e-18 -0.0126654 1.01794e-23
24.3192 0.492792 0.058986 -2.80808e-17 -0.0124647 2.88086e-23
24.2384 0.500625 1.88755 -1.30104e-18 -0.0126654 1.01794e-23
24.2927 0.494838 1.88755 -2.94903e-17 -0.0125303 8.88748e-24
24.2927 0.494838 -1.88755 -3.00354e-17 -0.0125303 8.88748e-24
24.2384 1.20566e-15 1.88755 0 0 0
24.2384 1.20566e-15 -1.88755 0 0 0
24.1632 0.509717 -0.0354179 5.79235e-17 -0.0128509 8.2015e-25
24.0959 0.515871 -1.88755 -7.37257e-18 -0.0130078 6.02669e-24
24.0959 0.515871 0.827153 -7.37257e-18 -0.0130078 6.02669e-24
24.0959 0.515871 1.88755 -7.37257e-18 -0.0130078 6.02669e-24
24.1777 0.507201 1.88755 -5.72459e-17 -0.0128142 4.45911e-24
24.1777 0.507201 -1.88755 -5.63117e-17 -0.0128142 4.45911e-24
24.0959 1.19852e-15 1.88755 0 0 0
24.0959 1.19852e-15 -1.88755 0 0 0
23.965 0.529851 -1.70937 -5.18093e-17 -0.0133035 -1.73934e-24
23.9585 0.530414 -1.88755 1.03758e-16 -0.0133178 -3.56074e-24
23.965 0.529851 1.70937 2.6094e-17 -0.0133035 -1.73934e-24
23.9585 0.530414 1.74492 1.55041e-17 -0.0133178 -3.56074e-24
23.9585 0.530414 1.88755 1.55041e-17 -0.0133178 -3.56074e-24
24.066 0.519648 1.06539 7.26551e-17 -0.0130787 1.08525e-23
24.065 0.519202 1.88755 -1.0842e-17 -0.0130799 4.6876e-24
24.065 0.519202 -1.88755 -1.04135e-17 -0.0130799 4.6876e-24
24.066 0.519648 -1.06539 7.28584e-17 -0.0130787 1.08525e-23
23.9585 1.19164e-15 1.88755 0 0 0
23.9585 1.19164e-15 -1.88755 0 0 0
23.9369 0.532674 1.88755 -5.65954e-17 -0.0133632 -4.6406e-24
23.8462 0.542825 -1.30846 -3.46945e-17 -0.0135564 -2.24997e-23
23.8462 0.542825 1.30846 -3.46945e-17 -0.0135564 -2.24997e-23
23.9369 0.532674 1.27439 -5.65954e-17 -0.0133632 -4.6406e-24
23.9369 0.532674 -1.88755 3.13877e-17 -0.0133632 -4.6406e-24
23.8259 0.544504 -1.88755 8.67362e-19 -0.0135955 -6.54927e-24
23.8259 0.544504 -1.21259 4.33681e-19 -0.0135955 -6.54927e-24
23.8259 0.544504 1.88755 8.67362e-19 -0.0135955 -6.54927e-24
23.8455 0.542457 1.88755 1.23471e-17 -0.0135564 -6.89937e-24
23.8455 0.542457 -1.88755 1.17094e-17 -0.0135564 -6.89937e-24
23.9544 0.530847 1.88755 4.29863e-17 -0.0133267 -3.4394e-24
23.9546 0.530908 1.77606 2.57533e-17 -0.0133265 -2.48689e-24
23.9544 0.530847 -1.88755 4.04407e-17 -0.0133267 -3.4394e-24
23.9546 0.530908 -1.77606 -4.19783e-17 -0.0133265 -2.48689e-24
23.8259 1.185e-15 1.88755 0 0 0
23.8259 1.185e-15 -1.88755 0 0 0
23.7403 0.554552 0 -5.31259e-17 -0.0137664 -1.66746e-24
23.7954 0.54843 0.988677 -1.45464e-17 -0.0136574 -4.49021e-24
23.7954 0.54843 -0.988677 -1.38778e-17 -0.0136574 -4.49021e-24
23.698 0.557971 -1.88755 6.93889e-18 -0.0138411 -4.92616e-24
23.698 0.557971 -0.444201 6.93889e-18 -0.0138411 -4.92616e-24
23.698 0.557971 1.88755 6.93889e-18 -0.0138411 -4.92616e-24
23.7387 0.553751 1.88755 -3.29597e-17 -0.0137664 -2.4803e-24
23.7387 0.553751 -1.88755 -3.32486e-17 -0.0137664 -2.4803e-24
23.698 1.1786e-15 1.88755 0 0 0
23.698 1.1786e-15 -1.88755 0 0 0
23.6363 0.565919 -0.000557711 -4.78887e-17 -0.0139561 -1.96334e-23
23.5746 0.570799 -1.88755 5.20417e-18 -0.0140543 -1.01432e-23
23.5746 0.570799 0.287743 3.90313e-18 -0.0140543 -1.01432e-23
23.5746 0.570799 1.88755 3.90313e-18 -0.0140543 -1.01432e-23
23.6343 0.56467 1.88755 -1.82146e-17 -0.0139555 -7.3319e-24
23.6343 0.56467 -1.88755 -1.95766e-17 -0.0139555 -7.3319e-24
23.5746 1.17242e-15 1.88755 0 0 0
23.5746 1.17242e-15 -1.88755 0 0 0
23.5112 0.578267 -0.0417367 -5.29226e-17 -0.014156 -2.72614e-23
23.4557 0.583013 -1.88755 1.60462e-17 -0.0142353 -1.7516e-24
23.4557 0.583013 0.984748 1.56125e-17 -0.0142353 -1.7516e-24
23.4557 0.583013 1.88755 1.60462e-17 -0.0142353 -1.7516e-24
23.5322 0.575222 1.88755 -1.04083e-17 -0.0141231 -8.45187e-24
23.5322 0.575222 -1.88755 -1.23932e-17 -0.0141231 -8.45187e-24
23.4557 1.16646e-15 1.88755 0 0 0
23.4557 1.16646e-15 -1.88755 0 0 0
23.3492 0.59401 -1.61231 -8.39058e-18 -0.014374 8.32993e-24
23.3409 0.59464 -1.88755 -8.40257e-17 -0.0143841 9.13385e-24
23.3492 0.59401 1.61231 -8.38975e-18 -0.014374 8.32993e-24
23.3409 0.59464 1.64828 -8.24702e-17 -0.0143841 9.13385e-24
23.3409 0.59464 1.88755 -8.25078e-17 -0.0143841 9.13385e-24
23.4332 0.585902 1.14952 3.37547e-17 -0.0142688 -5.10697e-25
23.4324 0.585413 1.88755 3.49028e-17 -0.0142686 -6.68457e-25
23.4324 0.585413 -1.88755 3.46945e-17 -0.0142686 -6.68457e-25
23.4332 0.585902 -1.14952 3.33934e-17 -0.0142688 -5.10697e-25
23.3409 1.16071e-15 1.88755 0 0 0
23.3409 1.16071e-15 -1.88755 0 0 0
23.299 0.598832 1.88755 3.25196e-17 -0.0144288 4.06223e-24
23.2397 0.605146 -1.56186 2.48869e-17 -0.0144924 -9.52772e-25
23.2397 0.605146 1.56186 2.50046e-17 -0.0144924 -9.52772e-25
23.299 0.598832 0.459829 -5.07407e-17 -0.0144288 4.06223e-24
23.299 0.598832 -1.88755 3.23092e-17 -0.0144288 4.06223e-24
23.2302 0.605791 -1.88755 2.60209e-17 -0.0144994 -4.84547e-24
23.2302 0.605791 -1.52854 2.60209e-17 -0.0144994 -4.84547e-24
23.2302 0.605791 1.88755 2.1684e-19 -0.0144994 -4.84547e-24
23.2393 0.604885 1.88755 2.02289e-17 -0.0144915 -4.41282e-24
23.2393 0.604885 -1.88755 2.05998e-17 -0.0144915 -4.41282e-24
23.3349 0.595251 1.88755 7.04731e-18 -0.0143914 9.56071e-24
23.3351 0.595383 1.69064 -5.80987e-17 -0.0143915 8.73466e-24
23.3349 0.595251 -1.88755 1.07336e-17 -0.0143914 9.56071e-24
23.3351 0.595383 -1.69064 -5.79014e-17 -0.0143915 8.73466e-24
23.2302 1.15517e-15 1.88755 0 0 0
23.2302 1.15517e-15 -1.88755 0 0 0
23.1468 0.614914 1.05792 7.2608e-18 -0.0145705 -2.38012e-23
23.2176 0.607467 1.44212 5.2827e-17 -0.0145114 -1.3736e-23
23.1468 0.614914 -1.05792 7.43759e-18 -0.0145705 -2.38012e-23
23.2176 0.607467 -1.44212 5.30866e-17 -0.0145114 -1.3736e-23
23.1234 0.616446 -1.88755 1.47451e-17 -0.0145818 -8.06153e-24
23.1234 0.616446 -0.978815 1.51788e-17 -0.0145818 -8.06153e-24
23.1234 0.616446 1.88755 1.47451e-17 -0.0145818 -8.06153e-24
23.1458 0.614244 1.88755 2.90816e-18 -0.014568 -8.22113e-24
23.1458 0.614244 -1.88755 2.60209e-18 -0.014568 -8.22113e-24
23.1234 1.14982e-15 1.88755 0 0 0
23.1234 1.14982e-15 -1.88755 0 0 0
23.0203 0.626575 -1.88755 -8.67362e-19 -0.014632 -7.37279e-24
23.0203 0.626575 -0.456176 -1.73472e-18 -0.014632 -7.37279e-24
23.0745 0.622414 0.0327721 -3.9614e-17 -0.0146136 -3.83217e-24
23.0203 0.626575 1.88755 -8.67362e-19 -0.014632 -7.37279e-24
23.0547 0.623247 1.88755 2.65574e-17 -0.0146202 -8.03032e-24
23.0547 0.623247 -1.88755 2.68882e-17 -0.0146202 -8.03032e-24
23.0203 1.14466e-15 1.88755 0 0 0
23.0203 1.14466e-15 -1.88755 0 0 0
22.921 0.636203 -1.88755 -2.34188e-17 -0.0146497 -3.3439e-24
22.921 0.636203 0.0406332 -2.34364e-17 -0.0146497 -3.3439e-24
22.9711 0.633038 0.0057195 8.34158e-18 -0.0146521 -2.12318e-23
22.921 0.636203 1.88755 4.33681e-18 -0.0146497 -3.3439e-24
22.9659 0.631904 1.88755 -9.54098e-18 -0.0146474 -6.88834e-24
22.9659 0.631904 -1.88755 -7.36381e-18 -0.0146474 -6.88834e-24
22.921 1.13969e-15 1.88755 0 0 0
22.921 1.13969e-15 -1.88755 0 0 0
22.872 0.642349 -0.0140972 -7.73782e-17 -0.0146518 1.86218e-23
22.8251 0.645353 -1.88755 -1.21431e-17 -0.0146349 -2.37961e-24
22.8251 0.645353 0.512845 -1.30104e-17 -0.0146349 -2.37961e-24
22.8251 0.645353 1.88755 -1.21431e-17 -0.0146349 -2.37961e-24
22.8793 0.640224 1.88755 1.0663e-16 -0.014649 8.10718e-26
22.8793 0.640224 -1.88755 1.07553e-16 -0.014649 8.10718e-26
22.8251 1.13489e-15 1.88755 0 0 0
22.8251 1.13489e-15 -1.88755 0 0 0
22.7767 0.650953 -0.0301168 -9.3282e-17 -0.0146167 -1.46165e-23
22.7326 0.65405 -1.88755 -2.1684e-18 -0.0145872 -4.96037e-24
22.7326 0.65405 0.961686 -2.1684e-18 -0.0145872 -4.96037e-24
22.7326 0.65405 1.88755 -2.1684e-18 -0.0145872 -4.96037e-24
22.7951 0.648218 1.88755 -3.1225e-17 -0.0146245 -9.01654e-25
22.7951 0.648218 -1.88755 -3.25903e-17 -0.0146245 -9.01654e-25
22.7326 1.13026e-15 1.88755 0 0 0
22.7326 1.13026e-15 -1.88755 0 0 0
22.6561 0.661655 -1.35411 5.89806e-17 -0.01452 -1.46776e-37
22.6435 0.662318 -1.88755 -6.07153e-18 -0.0145064 4.29266e-25
22.6561 0.661655 1.35411 3.3097e-17 -0.01452 -1.41451e-37
22.6435 0.662318 1.38838 6.59195e-17 -0.0145064 4.29266e-25
22.6435 0.662318 1.88755 9.71445e-17 -0.0145064 4.29266e-25
22.7138 0.656568 1.0915 1.1432e-16 -0.0145764 -3.33011e-24
22.713 0.655896 1.88755 -7.1837e-18 -0.0145734 -3.7774e-24
22.713 0.655896 -1.88755 -6.93889e-18 -0.0145734 -3.7774e-24
22.7138 0.656568 -1.0915 1.14492e-16 -0.0145764 -3.33011e-24
22.6435 1.12579e-15 1.88755 0 0 0
22.6435 1.12579e-15 -1.88755 0 0 0
22.5597 0.670067 -1.78832 3.00324e-17 -0.0143958 -2.88349e-24
22.5574 0.67018 -1.88755 1.08962e-17 -0.0143925 -2.95947e-24
22.5597 0.670067 1.78832 3.00324e-17 -0.0143958 -2.88349e-24
22.5574 0.67018 1.79415 1.08962e-17 -0.0143925 -2.95947e-24
22.5574 0.67018 1.88755 1.08962e-17 -0.0143925 -2.95947e-24
22.6336 0.663636 1.45635 2.90664e-17 -0.014497 4.36568e-38
22.6332 0.663269 1.88755 -7.32921e-17 -0.0144953 4.20212e-26
22.6332 0.663269 -1.88755 3.03577e-17 -0.0144953 4.20212e-26
22.6336 0.663636 -1.45635 2.77556e-17 -0.014497 4.36568e-38
22.5574 1.12148e-15 1.88755 0 0 0
22.5574 1.12148e-15 -1.88755 0 0 0
22.5374 0.671989 1.88755 -5.81405e-18 -0.0143573 -3.04347e-24
22.48 0.677463 -1.63218 -3.46945e-18 -0.0142567 -2.63169e-24
22.48 0.677463 1.63218 -3.6998e-18 -0.0142567 -2.63169e-24
22.5374 0.671989 0.975292 -5.80048e-18 -0.0143573 -3.04347e-24
22.5374 0.671989 -1.88755 -5.85469e-18 -0.0143573 -3.04347e-24
22.4744 0.677672 -1.88755 -4.81386e-17 -0.0142438 -2.82968e-24
22.4744 0.677672 -1.6224 -4.81791e-17 -0.0142438 -2.82968e-24
22.4744 0.677672 1.88755 -1.71304e-17 -0.0142438 -2.82968e-24
22.4798 0.677198 1.88755 2.92591e-17 -0.0142547 -2.84749e-24
22.4798 0.677198 -1.88755 2.94903e-17 -0.0142547 -2.84749e-24
22.5556 0.67035 1.88755 1.72591e-17 -0.0143897 -2.96737e-24