0 	-0.00574888 	0 	0 	0 	2.33937e-15 	0 	0 	2.33937e-15 	0 	2.33937e-15
0.0474747 	-0.00574817 	0.0534114 	-0.000284667 	8.28551e-24 	0.000402213 	-4.36621e-05 	-1.708e-26 	0.000404042 	2.80918e-26 	0.000403104
0.0949495 	-0.005768 	0.0878358 	-0.00090864 	7.36541e-24 	0.000724497 	-0.000254572 	-4.71408e-25 	0.000759202 	-7.32291e-26 	0.00074197
0.142424 	-0.00579052 	0.103117 	-0.00158099 	-5.68849e-24 	0.000915593 	-0.000405554 	8.10082e-25 	0.00100193 	1.70983e-25 	0.000958808
0.189899 	-0.00582356 	0.115006 	-0.00227577 	4.10361e-24 	0.00119197 	-0.000553533 	-1.62358e-24 	0.00132968 	-3.89012e-25 	0.0012608
0.237374 	-0.00585062 	0.125529 	-0.00296036 	-5.58261e-24 	0.00149119 	-0.000702466 	3.13266e-24 	0.00168025 	1.06625e-25 	0.00158571
0.284848 	-0.00588834 	0.135382 	-0.0036429 	3.7865e-24 	0.00180213 	-0.000854183 	-2.9786e-24 	0.00204403 	-2.57073e-25 	0.00192308
0.332323 	-0.00592112 	0.144579 	-0.00430635 	1.85994e-24 	0.00211337 	-0.00100492 	-1.21359e-24 	0.0024081 	6.18548e-25 	0.00226073
0.379798 	-0.00595656 	0.153347 	-0.00495919 	-8.62258e-24 	0.00242716 	-0.00115639 	1.11729e-23 	0.00277505 	-7.2784e-25 	0.0026011
0.427273 	-0.00599638 	0.161786 	-0.00560317 	6.70962e-24 	0.00274391 	-0.00130898 	-1.01496e-23 	0.0031451 	-2.03847e-25 	0.0029445
0.474747 	-0.00603995 	0.169961 	-0.00623811 	3.59371e-24 	0.00306334 	-0.0014626 	-3.65503e-24 	0.00351747 	8.19002e-25 	0.00329039
0.522222 	-0.00607546 	0.177745 	-0.00684799 	-1.05555e-23 	0.00337701 	-0.00161319 	1.91214e-23 	0.0038818 	-4.76811e-25 	0.00362938
0.569697 	-0.00611677 	0.185338 	-0.00744541 	4.60817e-24 	0.00369185 	-0.00176399 	-1.20208e-23 	0.00424551 	-7.79104e-25 	0.00396865
0.617172 	-0.00615895 	0.192762 	-0.00803031 	6.98904e-24 	0.00400594 	-0.00191412 	-1.96488e-23 	0.00460646 	1.32932e-24 	0.00430618
0.664646 	-0.00620482 	0.200091 	-0.00861109 	3.3788e-24 	0.0043254 	-0.00206636 	-6.83679e-24 	0.00497062 	1.20776e-24 	0.00464799
0.712121 	-0.00624489 	0.20714 	-0.00916168 	-6.03198e-24 	0.00463514 	-0.0022134 	1.81535e-23 	0.00531999 	-2.92148e-26 	0.00497757
0.759596 	-0.00629273 	0.214242 	-0.00971423 	-2.46716e-24 	0.00495127 	-0.00236297 	6.04237e-24 	0.00567339 	-4.13467e-25 	0.00531235
0.807071 	-0.00632984 	0.221047 	-0.0102342 	-6.35936e-25 	0.00525537 	-0.0025061 	2.33393e-24 	0.00600845 	-6.36256e-25 	0.00563194
0.854545 	-0.00637506 	0.227935 	-0.0107527 	3.7077e-25 	0.00556317 	-0.00265037 	-3.19835e-25 	0.00634384 	-4.73265e-27 	0.00595354
0.90202 	-0.00641219 	0.234627 	-0.0112444 	-1.17698e-24 	0.005861 	-0.00278906 	4.53013e-24 	0.00666271 	-3.42855e-25 	0.0062619
0.949495 	-0.00645737 	0.241448 	-0.0117354 	-2.88808e-24 	0.00616226 	-0.0029287 	1.08579e-23 	0.00698129 	-6.58365e-25 	0.00657182
0.99697 	-0.00649107 	0.248002 	-0.01219 	-2.24737e-25 	0.00644659 	-0.00305947 	8.33734e-25 	0.0072759 	-2.95847e-25 	0.00686129
1.04444 	-0.00653346 	0.254765 	-0.0126499 	1.84362e-24 	0.00673736 	-0.00319255 	-6.4886e-24 	0.0075734 	-1.49175e-25 	0.00715543
1.09192 	-0.00656638 	0.261262 	-0.0130708 	1.74482e-24 	0.00700794 	-0.0033154 	-6.41767e-24 	0.00784456 	1.86312e-26 	0.00742629
1.13939 	-0.00660323 	0.267927 	-0.0134907 	1.7613e-24 	0.0072814 	-0.00343867 	-6.79013e-24 	0.00811362 	3.07665e-25 	0.00769755
1.18687 	-0.00664267 	0.27462 	-0.0138925 	2.1952e-24 	0.00754634 	-0.00355718 	-8.70285e-24 	0.00836942 	4.23943e-25 	0.00795792
1.23434 	-0.00667317 	0.281123 	-0.0142619 	1.75588e-24 	0.00779373 	-0.00366668 	-7.52145e-24 	0.00860212 	4.56067e-25 	0.00819796
1.28182 	-0.00670811 	0.287792 	-0.0146326 	1.77194e-24 	0.00804356 	-0.00377672 	-8.47705e-24 	0.00883427 	6.06368e-25 	0.00843895
1.32929 	-0.00674338 	0.294425 	-0.0149733 	2.02101e-24 	0.0082767 	-0.0038781 	-9.57039e-24 	0.00904427 	6.75789e-25 	0.00866052
1.37677 	-0.00677332 	0.300984 	-0.0152885 	1.04384e-24 	0.00849522 	-0.00397183 	-4.86906e-24 	0.0092347 	5.19059e-25 	0.008865
1.42424 	-0.00680603 	0.307663 	-0.0156026 	7.29875e-26 	0.00871387 	-0.00406516 	-2.83453e-25 	0.00942297 	4.09262e-25 	0.00906846
1.47172 	-0.00684145 	0.314388 	-0.0158878 	3.64588e-25 	0.00891514 	-0.00414947 	-2.4356e-24 	0.00958862 	6.81726e-25 	0.00925191
1.51919 	-0.00686814 	0.32088 	-0.0161419 	-6.25269e-25 	0.00909641 	-0.00422412 	2.74801e-24 	0.00973167 	3.43216e-25 	0.00941408
1.56667 	-0.00689919 	0.327578 	-0.0163896 	-1.90679e-24 	0.0092741 	-0.00429624 	9.18643e-24 	0.00986699 	-1.6618e-25 	0.00957059
1.61414 	-0.00693467 	0.334411 	-0.0166215 	-3.39155e-24 	0.00944146 	-0.00436288 	1.68908e-23 	0.00998857 	-6.93504e-25 	0.00971506
1.66162 	-0.00695918 	0.340808 	-0.016821 	-4.74809e-24 	0.00958711 	-0.0044198 	2.53304e-23 	0.0100893 	-1.35829e-24 	0.00983827
1.70909 	-0.00698884 	0.347503 	-0.016992 	-3.66451e-24 	0.00971235 	-0.0044657 	2.00972e-23 	0.0101621 	-1.22641e-24 	0.00993728
1.75657 	-0.00701868 	0.354206 	-0.0171624 	-2.53077e-24 	0.00983723 	-0.00451138 	1.45766e-23 	0.0102343 	-1.07715e-24 	0.0100358
1.80404 	-0.00705446 	0.361091 	-0.017304 	-5.26625e-25 	0.00994089 	-0.00454637 	3.60576e-24 	0.0102811 	-5.38501e-25 	0.0101111
1.85152 	-0.00707624 	0.367388 	-0.0174202 	2.27927e-24 	0.0100269 	-0.0045741 	-1.20178e-23 	0.0103141 	1.56396e-25 	0.0101705
1.89899 	-0.00710547 	0.374057 	-0.0175017 	2.42478e-24 	0.0100851 	-0.00458749 	-1.29292e-23 	0.0103123 	2.99145e-25 	0.0101988
1.94646 	-0.0071347 	0.380726 	-0.0175832 	2.57029e-24 	0.0101433 	-0.00460089 	-1.38405e-23 	0.0103106 	4.41895e-25 	0.010227
1.99394 	-0.00716861 	0.387525 	-0.0176352 	1.11869e-24 	0.010178 	-0.00460286 	-6.00373e-24 	0.0102828 	1.96321e-25 	0.0102305
2.04141 	-0.00719354 	0.393885 	-0.017668 	-3.01208e-26 	0.0101989 	-0.00459928 	2.53704e-25 	0.0102447 	5.77707e-26 	0.0102219
2.08889 	-0.00722088 	0.40035 	-0.0176617 	-2.97071e-25 	0.0101876 	-0.00458028 	1.73629e-24 	0.010172 	4.64988e-26 	0.0101799
2.13636 	-0.00725028 	0.406909 	-0.017642 	-3.60167e-25 	0.0101651 	-0.00455582 	2.11337e-24 	0.0100869 	5.00207e-26 	0.010126
2.18384 	-0.00728044 	0.413483 	-0.0176165 	-3.37032e-25 	0.0101378 	-0.00452911 	2.01602e-24 	0.00999674 	6.4537e-26 	0.0100673
2.23131 	-0.00731522 	0.420122 	-0.0175462 	3.71751e-25 	0.0100733 	-0.00448517 	-1.85332e-24 	0.00986918 	1.81212e-25 	0.00997122
2.27879 	-0.00733783 	0.426177 	-0.0174783 	1.24939e-24 	0.0100127 	-0.0044443 	-6.64775e-24 	0.00975101 	4.74896e-25 	0.00988183
2.32626 	-0.00736652 	0.432194 	-0.0173586 	1.11242e-24 	0.0099071 	-0.004383 	-5.73785e-24 	0.00958928 	4.23839e-25 	0.00974815
2.37374 	-0.00739553 	0.438209 	-0.0172362 	9.22397e-25 	0.00979915 	-0.00432062 	-4.52965e-24 	0.00942527 	3.54754e-25 	0.00961215
2.42121 	-0.00742479 	0.444213 	-0.0171113 	6.78407e-25 	0.00968909 	-0.00425733 	-3.0229e-24 	0.00925941 	2.66509e-25 	0.00947417
2.46869 	-0.0074588 	0.449984 	-0.0169398 	-5.97689e-25 	0.00953859 	-0.00417657 	4.19361e-24 	0.00905814 	-1.88171e-25 	0.00929827
2.51616 	-0.00748615 	0.456307 	-0.0167475 	-3.06706e-24 	0.00937179 	-0.00408722 	1.84819e-23 	0.00883572 	-9.21995e-25 	0.00910365
2.56364 	-0.00751806 	0.462327 	-0.0165173 	-3.02145e-24 	0.00916932 	-0.00398281 	1.79283e-23 	0.00858363 	-1.01004e-24 	0.00887637
2.61111 	-0.00755064 	0.468303 	-0.0162825 	-2.63736e-24 	0.00896246 	-0.00387657 	1.5377e-23 	0.00832797 	-1.0115e-24 	0.00864511
2.65859 	-0.00758432 	0.474119 	-0.01604 	-1.3991e-24 	0.0087482 	-0.00376756 	7.74699e-24 	0.00806768 	-7.90692e-25 	0.00840784
2.70606 	-0.00761917 	0.479622 	-0.0157685 	2.43359e-24 	0.0085069 	-0.00364773 	-1.53388e-23 	0.00778723 	9.95886e-26 	0.00814698
2.75354 	-0.00764985 	0.485415 	-0.0154628 	5.80697e-24 	0.00823611 	-0.00351431 	-3.55888e-23 	0.00747706 	8.71982e-25 	0.00785651
2.80101 	-0.00768511 	0.490901 	-0.0151365 	6.66559e-24 	0.00794474 	-0.00337285 	-4.0428e-23 	0.00715249 	1.03511e-24 	0.00754855
2.84848 	-0.00772036 	0.496387 	-0.0148103 	7.5242e-24 	0.00765338 	-0.0032314 	-4.52672e-23 	0.00682791 	1.19824e-24 	0.00724058
2.89596 	-0.0077599 	0.501292 	-0.0144719 	4.52292e-24 	0.00734831 	-0.00308611 	-2.6948e-23 	0.00650002 	5.51901e-25 	0.0069241
2.94343 	-0.00779201 	0.506571 	-0.0140887 	1.07953e-25 	0.00700533 	-0.00292351 	1.25192e-25 	0.00613447 	-2.60704e-25 	0.00656982
2.99091 	-0.0078302 	0.511452 	-0.01369 	2.22108e-25 	0.00664598 	-0.00275521 	-4.26152e-25 	0.00576049 	-1.34992e-25 	0.00620312
3.03838 	-0.00786849 	0.51632 	-0.0132913 	4.26138e-25 	0.00628661 	-0.00258695 	-1.51617e-24 	0.00538671 	8.90389e-27 	0.00583651
3.08586 	-0.0079099 	0.520644 	-0.0128864 	5.15063e-24 	0.00591952 	-0.0024176 	-2.96809e-23 	0.00501543 	1.00793e-24 	0.00546726
3.13333 	-0.00794643 	0.525106 	-0.0124392 	7.84695e-24 	0.00551641 	-0.00223255 	-4.60789e-23 	0.00461189 	1.49592e-24 	0.00506389
3.18081 	-0.00798753 	0.529272 	-0.0119873 	6.32788e-24 	0.00510798 	-0.00204618 	-3.78678e-23 	0.00420832 	1.36445e-24 	0.00465787
3.22828 	-0.00803119 	0.533136 	-0.0115429 	1.58964e-24 	0.00470539 	-0.00186343 	-1.06502e-23 	0.00381478 	6.72897e-25 	0.0042598
3.27576 	-0.00806981 	0.536905 	-0.0110694 	-6.01022e-24 	0.00427844 	-0.00167091 	3.15152e-23 	0.00340299 	-6.66747e-26 	0.00384047
3.32323 	-0.0081129 	0.540247 	-0.0105818 	-7.02596e-24 	0.00384231 	-0.00147506 	3.75483e-23 	0.00298991 	-3.92572e-25 	0.00341594
3.37071 	-0.00815741 	0.543415 	-0.0101014 	-5.63714e-24 	0.00341315 	-0.00128261 	3.04785e-23 	0.00258547 	-5.63537e-25 	0.00299923
3.41818 	-0.00819799 	0.546285 	-0.00960729 	-1.85776e-24 	0.00297589 	-0.0010874 	9.92073e-24 	0.00217929 	-6.61495e-25 	0.00257764
3.46566 	-0.00824065 	0.548679 	-0.00909956 	-6.6685e-25 	0.00254804 	-0.000892769 	3.55246e-24 	0.00178705 	-4.80376e-25 	0.00216766
3.51313 	-0.00828529 	0.550811 	-0.00860566 	4.4539e-26 	0.00213935 	-0.000705407 	-4.49722e-25 	0.00141432 	-5.04222e-26 	0.00177699
3.56061 	-0.00832303 	0.552537 	-0.00809415 	-3.42221e-25 	0.00174685 	-0.000517476 	1.26018e-24 	0.00106166 	4.64045e-26 	0.0014044
3.60808 	-0.00836338 	0.553776 	-0.00758316 	-2.33589e-24 	0.00141439 	-0.000334138 	8.1266e-24 	0.000770992 	1.71067e-25 	0.00109281
3.65556 	-0.00840397 	0.554528 	-0.00709393 	-4.39687e-24 	0.00114936 	-0.000162294 	1.58937e-23 	0.0005475 	4.49811e-25 	0.00084851
3.70303 	-0.00843798 	0.554676 	-0.00658692 	-4.26567e-24 	0.00102037 	8.57677e-06 	1.42086e-23 	0.000462687 	4.03503e-25 	0.000741575
3.75051 	-0.00847689 	0.55437 	-0.0061062 	-8.02545e-24 	0.00102318 	0.000166842 	2.66272e-23 	0.000507976 	-5.41376e-25 	0.000765625
3.79798 	-0.00850571 	0.553305 	-0.00561782 	-1.17005e-23 	0.00116741 	0.000319167 	3.83893e-23 	0.000695637 	-7.35177e-25 	0.000931593
3.84545 	-0.00853956 	0.551702 	-0.00515237 	-2.9909e-24 	0.00135276 	0.000458831 	1.1343e-23 	0.00092237 	-7.70455e-25 	0.00113767
3.89293 	-0.00856458 	0.549249 	-0.0046942 	1.35426e-24 	0.00157864 	0.000587594 	-3.34921e-24 	0.00118834 	-1.2247e-24 	0.00138362
3.9404 	-0.00859441 	0.546218 	-0.00426032 	4.64164e-24 	0.00179174 	0.000703736 	-1.35221e-23 	0.00143849 	-9.13593e-26 	0.00161523
3.98788 	-0.00861325 	0.542246 	-0.00383211 	1.04815e-23 	0.00199441 	0.000809561 	-2.92967e-23 	0.00167656 	2.84376e-25 	0.00183555
4.03535 	-0.00863592 	0.5377 	-0.00343259 	4.16706e-25 	0.00217456 	0.000902405 	-2.05545e-24 	0.00188898 	-7.6912e-26 	0.00203176
4.08283 	-0.00865259 	0.532237 	-0.00304145 	3.25786e-24 	0.00233252 	0.000983688 	-7.89918e-24 	0.00207834 	-6.59728e-26 	0.00220538
4.1303 	-0.00866898 	0.525953 	-0.00268131 	1.20412e-23 	0.00245831 	0.00104882 	-2.88424e-23 	0.00223312 	9.82806e-25 	0.00234567
4.17778 	-0.00868457 	0.518956 	-0.0023376 	-1.01004e-23 	0.00256084 	0.00110278 	2.33165e-23 	0.00236369 	7.31985e-25 	0.00246224
4.22525 	-0.00870322 	0.511047 	-0.00201762 	-5.06562e-24 	0.0026324 	0.00114198 	1.16467e-23 	0.00246194 	-2.58759e-25 	0.00254716
4.27273 	-0.00871279 	0.502035 	-0.0017114 	4.7726e-25 	0.0026778 	0.00116889 	-1.18118e-24 	0.00253346 	-6.82104e-25 	0.00260563
4.3202 	-0.00872296 	0.491963 	-0.00142967 	2.00779e-24 	0.0026946 	0.00118214 	-4.06705e-24 	0.0025748 	-5.22755e-25 	0.0026347
4.36768 	-0.00873425 	0.480637 	-0.00117239 	6.74768e-24 	0.00268324 	0.00118181 	-1.28951e-23 	0.00258627 	7.44822e-25 	0.00263476
4.41515 	-0.00874511 	0.467747 	-0.000938065 	-3.40498e-24 	0.00264471 	0.00116805 	6.33027e-24 	0.00256883 	-1.59463e-25 	0.00260677
4.46263 	-0.00874868 	0.452616 	-0.000723718 	-7.0084e-25 	0.00257844 	0.00113984 	8.30488e-25 	0.00252204 	3.88804e-25 	0.00255025
4.5101 	-0.00875884 	0.434762 	-0.000534871 	-1.82568e-24 	0.00248957 	0.00109718 	2.95116e-24 	0.0024503 	-4.8153e-25 	0.00246994
4.55758 	-0.00876084 	0.412064 	-0.000368472 	1.47745e-23 	0.00239091 	0.00103734 	-1.35463e-23 	0.00236648 	9.68107e-25 	0.00237869
4.60505 	-0.0087703 	0.380098 	-0.000227534 	2.02434e-24 	0.00236959 	0.000954664 	-9.61265e-25 	0.00235724 	-1.43834e-25 	0.00236339
4.65253 	-0.00877116 	0.310513 	-0.000101578 	5.85267e-24 	0.00280984 	0.000673134 	-1.57648e-26 	0.00280707 	-7.70494e-26 	0.00280846
4.7 	-0.00877465 	0 	0 	0 	4.20844e-11 	0 	0 	4.20844e-11 	0 	4.20844e-11
