# U  POINT_DATA 1980
# x y z  U_x U_y U_z
76.848 4.7 -1.88755 1.02732e-10 -7.07044e-15 7.15253e-34
76.848 4.7 1.88755 1.02732e-10 -7.07044e-15 7.15253e-34
76.848 1.993e-11 -1.88755 1e-10 2.29684e-15 0
76.848 2.02721e-11 1.88755 1.028e-10 4.08087e-15 0
75.8596 4.7 -1.88755 9.99977e-11 2.84333e-16 -6.18853e-34
75.8596 4.7 1.88755 9.99977e-11 2.84333e-16 -6.18853e-34
75.8596 1.98209e-11 -1.88755 1e-10 2.84069e-15 -4.67587e-34
75.8596 2.01419e-11 1.88755 1e-10 6.07778e-16 0
74.8826 4.7 -1.88755 1.00001e-10 -7.35979e-16 0
74.8826 4.7 1.88755 1.00001e-10 -7.35979e-16 0
74.8826 1.97243e-11 -1.88755 1e-10 2.67835e-15 1.82073e-34
74.8826 2.00502e-11 1.88755 1e-10 4.16787e-16 1.05257e-33
73.9169 4.7 -1.88755 9.99992e-11 -4.01391e-16 0
73.9169 4.7 1.88755 9.99992e-11 -4.01391e-16 0
73.9169 1.96267e-11 -1.88755 1e-10 2.83775e-15 7.66401e-34
73.9169 1.99449e-11 1.88755 1e-10 5.44616e-16 -1.45817e-33
72.9624 4.7 -1.88755 1.00002e-10 -6.09404e-16 5.53103e-38
72.9624 4.7 1.88755 1.00002e-10 -6.09404e-16 5.53103e-38
72.9624 1.95249e-11 -1.88755 1e-10 2.93455e-15 -5.95504e-34
72.9624 1.98507e-11 1.88755 1e-10 5.23415e-16 -1.87973e-33
72.019 4.7 -1.88755 1e-10 -5.34766e-16 -2.1186e-33
72.019 4.7 1.88755 1e-10 -5.34766e-16 -2.1186e-33
72.019 1.94223e-11 -1.88755 1e-10 3.04571e-15 -7.13507e-34
72.019 1.97366e-11 1.88755 1e-10 5.55249e-16 -2.29594e-33
71.0865 4.7 -1.88755 1.00003e-10 -6.05998e-16 -5.78793e-38
71.0865 4.7 1.88755 1.00003e-10 -6.05998e-16 -5.78793e-38
71.0865 1.93171e-11 -1.88755 1e-10 3.14885e-15 0
71.0865 1.96407e-11 1.88755 1e-10 5.78141e-16 0
70.1648 4.7 -1.88755 1.00001e-10 -5.91546e-16 4.03292e-39
70.1648 4.7 1.88755 1.00001e-10 -5.91546e-16 3.99452e-39
70.1648 1.92107e-11 -1.88755 1e-10 3.26934e-15 -2.68381e-33
70.1648 1.95215e-11 1.88755 1e-10 5.89003e-16 0
69.2537 4.7 -1.88755 9.99997e-11 -6.4224e-16 -6.59002e-33
69.2537 4.7 1.88755 9.99997e-11 -6.4224e-16 -6.59002e-33
69.2537 1.91018e-11 -1.88755 1e-10 3.38983e-15 -2.15359e-33
69.2537 1.94229e-11 1.88755 1e-10 6.28864e-16 -1.10439e-38
68.3532 4.7 -1.88755 9.9996e-11 -6.32661e-16 0
68.3532 4.7 1.88755 9.9996e-11 -6.32661e-16 0
68.3532 1.89916e-11 -1.88755 1e-10 3.51127e-15 5.10714e-34
68.3532 1.92989e-11 1.88755 1e-10 6.3095e-16 -7.97294e-33
67.4632 4.7 -1.88755 9.99972e-11 -6.84504e-16 8.16727e-33
67.4632 4.7 1.88755 9.99972e-11 -6.84504e-16 8.16727e-33
67.4632 1.8879e-11 -1.88755 1e-10 3.63745e-15 1.57928e-44
67.4632 1.91971e-11 1.88755 1e-10 6.75245e-16 1.28495e-43
66.5834 4.7 -1.88755 1.00004e-10 -6.75738e-16 0
66.5834 4.7 1.88755 1.00004e-10 -6.75738e-16 0
66.5834 1.8765e-11 -1.88755 1e-10 3.77716e-15 -6.73203e-34
66.5834 1.90686e-11 1.88755 1e-10 6.79902e-16 0
65.7138 4.7 -1.88755 1.00002e-10 -7.26273e-16 0
65.7138 4.7 1.88755 1.00002e-10 -7.26272e-16 0
65.7138 1.86485e-11 -1.88755 1e-10 3.92041e-15 -6.68794e-34
65.7138 1.89634e-11 1.88755 1e-10 7.30102e-16 1.05438e-32
64.8543 4.7 -1.88755 1e-10 -7.11407e-16 -1.84215e-38
64.8543 4.7 1.88755 1e-10 -7.11406e-16 -1.7958e-38
64.8543 1.85303e-11 -1.88755 1e-10 4.07543e-15 7.77679e-34
64.8543 1.88302e-11 1.88755 1e-10 7.29855e-16 3.49335e-39
64.0048 4.7 -1.88755 9.9999e-11 -7.79965e-16 0
64.0048 4.7 1.88755 9.9999e-11 -7.79965e-16 0
64.0048 1.84094e-11 -1.88755 1e-10 4.23416e-15 1.60106e-33
64.0048 1.87213e-11 1.88755 1e-10 7.94589e-16 -1.22643e-32
63.1651 4.7 -1.88755 9.99976e-11 -7.73467e-16 0
63.1651 4.7 1.88755 9.99976e-11 -7.73467e-16 0
63.1651 1.82869e-11 -1.88755 1e-10 4.36084e-15 -3.52002e-33
63.1651 1.85828e-11 1.88755 1e-10 7.98341e-16 -1.31176e-32
62.3351 4.7 -1.88755 9.99985e-11 -8.06586e-16 -1.29133e-32
62.3351 4.7 1.88755 9.99985e-11 -8.06586e-16 -1.29133e-32
62.3351 1.81636e-11 -1.88755 1e-10 4.56975e-15 -4.31247e-33
62.3351 1.84703e-11 1.88755 1e-10 8.37056e-16 -1.39873e-32
61.5147 4.7 -1.88755 9.99984e-11 -8.33711e-16 0
61.5147 4.7 1.88755 9.99984e-11 -8.33711e-16 0
61.5147 1.80355e-11 -1.88755 1e-10 4.73587e-15 -5.85183e-33
61.5147 1.83303e-11 1.88755 1e-10 8.90304e-16 -1.01561e-38
60.7038 4.7 -1.88755 1.00002e-10 -8.54915e-16 1.40953e-37
60.7038 4.7 1.88755 1.00002e-10 -8.54914e-16 1.40581e-37
60.7038 1.79079e-11 -1.88755 1e-10 4.91171e-15 -5.80909e-33
60.7038 1.82076e-11 1.88755 1e-10 8.99739e-16 -1.62843e-38
59.9024 4.7 -1.88755 1e-10 -8.8758e-16 2.71356e-38
59.9024 4.7 1.88755 1e-10 -8.8758e-16 2.71356e-38
59.9024 1.7776e-11 -1.88755 1e-10 5.12365e-15 6.4739e-33
59.9024 1.8069e-11 1.88755 1e-10 9.68561e-16 1.37582e-39
59.1102 4.7 -1.88755 9.99991e-11 -9.13347e-16 0
59.1102 4.7 1.88755 9.99991e-11 -9.13347e-16 0
59.1102 1.76434e-11 -1.88755 1e-10 5.32439e-15 5.29884e-33
59.1102 1.79371e-11 1.88755 1e-10 9.90363e-16 1.35362e-38
58.3271 4.7 -1.88755 9.99998e-11 -9.43685e-16 -1.68394e-32
58.3271 4.7 1.88755 9.99998e-11 -9.43685e-16 -1.68394e-32
58.3271 1.75074e-11 -1.88755 1e-10 5.54766e-15 -1.11656e-33
58.3271 1.77972e-11 1.88755 1e-10 1.05015e-15 1.82802e-32
57.5532 4.7 -1.88755 9.99979e-11 -9.77837e-16 1.7621e-32
57.5532 4.7 1.88755 9.99979e-11 -9.77837e-16 1.7621e-32
57.5532 1.73699e-11 -1.88755 1e-10 5.76751e-15 -7.38966e-33
57.5532 1.76582e-11 1.88755 1e-10 1.09235e-15 0
56.7882 4.7 -1.88755 1.00002e-10 -1.00465e-15 -1.83953e-32
56.7882 4.7 1.88755 1.00002e-10 -1.00465e-15 -1.83953e-32
56.7882 1.72297e-11 -1.88755 1e-10 6.016e-15 -7.32881e-33
56.7882 1.75151e-11 1.88755 1e-10 1.1498e-15 0
56.032 4.7 -1.88755 9.99989e-11 -1.04825e-15 -1.91691e-32
56.032 4.7 1.88755 9.99989e-11 -1.04825e-15 -1.91691e-32
56.032 1.70874e-11 -1.88755 1e-10 6.26885e-15 1.30488e-33
56.032 1.73704e-11 1.88755 1e-10 1.20477e-15 9.62656e-40
55.2846 4.7 -1.88755 1.00005e-10 -1.07373e-15 -3.81655e-37
55.2846 4.7 1.88755 1.00005e-10 -1.07373e-15 -3.82182e-37
55.2846 1.69426e-11 -1.88755 1e-10 6.5288e-15 -5.28071e-35
55.2846 1.7223e-11 1.88755 1e-10 1.2634e-15 -2.16682e-32
54.5459 4.7 -1.88755 9.99969e-11 -1.12504e-15 0
54.5459 4.7 1.88755 9.99969e-11 -1.12504e-15 0
54.5459 1.67957e-11 -1.88755 1e-10 6.79886e-15 -1.33461e-33
54.5459 1.70731e-11 1.88755 1e-10 1.33613e-15 2.25015e-32
53.8157 4.7 -1.88755 1.00002e-10 -1.14884e-15 0
53.8157 4.7 1.88755 1.00002e-10 -1.14884e-15 0
53.8157 1.66465e-11 -1.88755 1e-10 7.09511e-15 -1.42511e-33
53.8157 1.69211e-11 1.88755 1e-10 1.40247e-15 -4.21015e-39
53.094 4.7 -1.88755 9.99974e-11 -1.20772e-15 0
53.094 4.7 1.88755 9.99974e-11 -1.20772e-15 0
53.094 1.6495e-11 -1.88755 1e-10 7.40461e-15 7.71013e-33
53.094 1.67664e-11 1.88755 1e-10 1.48316e-15 2.41497e-32
52.3806 4.7 -1.88755 1.00002e-10 -1.23293e-15 0
52.3806 4.7 1.88755 1.00002e-10 -1.23293e-15 0
52.3806 1.63413e-11 -1.88755 1e-10 7.71997e-15 9.03631e-33
52.3806 1.66097e-11 1.88755 1e-10 1.5574e-15 2.72167e-38
51.6755 4.7 -1.88755 1e-10 -1.29918e-15 0
51.6755 4.7 1.88755 1e-10 -1.29918e-15 0
51.6755 1.61855e-11 -1.88755 1e-10 8.04994e-15 8.12811e-33
51.6755 1.64503e-11 1.88755 1e-10 1.65653e-15 0
50.9785 4.7 -1.88755 9.99994e-11 -1.32624e-15 0
50.9785 4.7 1.88755 9.99994e-11 -1.32624e-15 0
50.9785 1.60277e-11 -1.88755 1e-10 8.40473e-15 6.48827e-33
50.9785 1.6289e-11 1.88755 1e-10 1.74341e-15 2.65616e-32
50.2897 4.7 -1.88755 9.99984e-11 -1.40007e-15 -2.5155e-32
50.2897 4.7 1.88755 9.99984e-11 -1.40007e-15 -2.5155e-32
50.2897 1.58678e-11 -1.88755 1e-10 8.77423e-15 4.39086e-35
50.2897 1.61251e-11 1.88755 1e-10 1.85146e-15 2.73452e-32
49.6088 4.7 -1.88755 9.9998e-11 -1.42981e-15 0
49.6088 4.7 1.88755 9.9998e-11 -1.42981e-15 0
49.6088 1.5706e-11 -1.88755 1e-10 9.14806e-15 -1.04512e-32
49.6088 1.59594e-11 1.88755 1e-10 1.95031e-15 -2.81198e-32
48.9358 4.7 -1.88755 1.00003e-10 -1.51149e-15 2.81517e-37
48.9358 4.7 1.88755 1.00003e-10 -1.51149e-15 2.81517e-37
48.9358 1.55425e-11 -1.88755 1e-10 9.53619e-15 -2.25421e-32
48.9358 1.57914e-11 1.88755 1e-10 2.08169e-15 2.88804e-32
48.2705 4.7 -1.88755 1.00002e-10 -1.54464e-15 0
48.2705 4.7 1.88755 1.00002e-10 -1.54464e-15 0
48.2705 1.53774e-11 -1.88755 1e-10 9.94895e-15 -1.0531e-32
48.2705 1.56218e-11 1.88755 1e-10 2.19517e-15 0
47.613 4.7 -1.88755 9.99995e-11 -1.63391e-15 0
47.613 4.7 1.88755 9.99995e-11 -1.63391e-15 0
47.613 1.52107e-11 -1.88755 1e-10 1.03758e-14 0
47.613 1.54502e-11 1.88755 1e-10 2.33595e-15 0
46.9631 4.7 -1.88755 9.99967e-11 -1.67118e-15 -2.86372e-32
46.9631 4.7 1.88755 9.99967e-11 -1.67118e-15 -2.86372e-32
46.9631 1.50428e-11 -1.88755 1e-10 1.08043e-14 -1.68843e-33
46.9631 1.52772e-11 1.88755 1e-10 2.46471e-15 -2.58086e-39
46.3207 4.7 -1.88755 9.99977e-11 -1.76912e-15 0
46.3207 4.7 1.88755 9.99977e-11 -1.76912e-15 0
46.3207 1.48738e-11 -1.88755 1e-10 1.12441e-14 9.82286e-33
46.3207 1.51027e-11 1.88755 1e-10 2.6326e-15 3.17971e-32
45.6858 4.7 -1.88755 1.00004e-10 -1.81131e-15 2.99533e-32
45.6858 4.7 1.88755 1.00004e-10 -1.81131e-15 2.99533e-32
45.6858 1.47039e-11 -1.88755 1e-10 1.17056e-14 9.65485e-33
45.6858 1.49271e-11 1.88755 1e-10 2.77693e-15 2.07027e-38
45.0582 4.7 -1.88755 9.99943e-11 -1.91759e-15 0
45.0582 4.7 1.88755 9.99943e-11 -1.91759e-15 0
45.0582 1.45334e-11 -1.88755 1e-10 1.21773e-14 -1.68665e-33
45.0582 1.47504e-11 1.88755 1e-10 2.95457e-15 3.31687e-32
44.4379 4.7 -1.88755 1.00002e-10 -1.96415e-15 -3.12141e-32
44.4379 4.7 1.88755 1.00002e-10 -1.96415e-15 -3.12141e-32
44.4379 1.43625e-11 -1.88755 1e-10 1.26452e-14 -1.37296e-32
44.4379 1.4573e-11 1.88755 1e-10 3.11676e-15 -8.77679e-39
43.8248 4.7 -1.88755 9.9998e-11 -2.08034e-15 0
43.8248 4.7 1.88755 9.9998e-11 -2.08034e-15 0
43.8248 1.41916e-11 -1.88755 1e-10 1.31185e-14 -1.18608e-32
43.8248 1.4395e-11 1.88755 1e-10 3.32541e-15 3.44779e-32
43.2187 4.7 -1.88755 1.00004e-10 -2.13191e-15 -4.7189e-37
43.2187 4.7 1.88755 1.00004e-10 -2.13191e-15 -4.72937e-37
43.2187 1.40208e-11 -1.88755 1e-10 1.36086e-14 1.68538e-33
43.2187 1.4217e-11 1.88755 1e-10 3.50565e-15 -3.51088e-32
42.6197 4.7 -1.88755 9.99974e-11 -2.25811e-15 0
42.6197 4.7 1.88755 9.99974e-11 -2.25811e-15 0
42.6197 1.38506e-11 -1.88755 1e-10 1.41036e-14 3.20531e-44
42.6197 1.40389e-11 1.88755 1e-10 3.72916e-15 2.59904e-43
42.0276 4.7 -1.88755 1.00006e-10 -2.31489e-15 -3.35472e-32
42.0276 4.7 1.88755 1.00006e-10 -2.31489e-15 -3.35472e-32
42.0276 1.36812e-11 -1.88755 1e-10 1.45856e-14 1.25597e-32
42.0276 1.38613e-11 1.88755 1e-10 3.93562e-15 3.62806e-38
41.4424 4.7 -1.88755 9.99999e-11 -2.45197e-15 -3.40876e-32
41.4424 4.7 1.88755 9.99999e-11 -2.45197e-15 -3.40876e-32
41.4424 1.35129e-11 -1.88755 1e-10 1.50691e-14 1.24061e-32
41.4424 1.36842e-11 1.88755 1e-10 4.20732e-15 0
40.8639 4.7 -1.88755 1.00001e-10 -2.51353e-15 -3.46054e-32
40.8639 4.7 1.88755 1.00001e-10 -2.51353e-15 -3.46054e-32
40.8639 1.33462e-11 -1.88755 1e-10 1.55701e-14 -1.62216e-33
40.8639 1.35084e-11 1.88755 1e-10 4.44113e-15 -1.57086e-40
40.2922 4.7 -1.88755 9.99984e-11 -2.66357e-15 0
40.2922 4.7 1.88755 9.99984e-11 -2.66357e-15 0
40.2922 1.31813e-11 -1.88755 1e-10 1.60729e-14 -8.06288e-34
40.2922 1.33335e-11 1.88755 1e-10 4.73743e-15 3.80041e-32
39.727 4.7 -1.88755 1.00002e-10 -2.73181e-15 0
39.727 4.7 1.88755 1.00002e-10 -2.73181e-15 0
39.727 1.30186e-11 -1.88755 1e-10 1.65613e-14 7.86214e-34
39.727 1.31605e-11 1.88755 1e-10 5.0197e-15 -1.92666e-32
39.1685 4.7 -1.88755 1.00007e-10 -2.89557e-15 -8.8427e-37
39.1685 4.7 1.88755 1.00007e-10 -2.89557e-15 -8.85369e-37
39.1685 1.28584e-11 -1.88755 1e-10 1.70472e-14 -1.37036e-32
39.1685 1.29892e-11 1.88755 1e-10 5.38833e-15 -1.37157e-37
38.6163 4.7 -1.88755 1.00008e-10 -2.97093e-15 -4.97944e-37
38.6163 4.7 1.88755 1.00008e-10 -2.97094e-15 -4.98484e-37
38.6163 1.27012e-11 -1.88755 1e-10 1.75437e-14 -1.28018e-32
38.6163 1.28202e-11 1.88755 1e-10 5.72571e-15 1.97669e-32
38.0706 4.7 -1.88755 1e-10 -3.1512e-15 5.04572e-38
38.0706 4.7 1.88755 1e-10 -3.1512e-15 4.95583e-38
38.0706 1.25471e-11 -1.88755 1e-10 1.80363e-14 1.43669e-33
38.0706 1.26535e-11 1.88755 1e-10 6.15146e-15 -2.0003e-32
37.5312 4.7 -1.88755 1.00002e-10 -3.24101e-15 1.78796e-37
37.5312 4.7 1.88755 1.00002e-10 -3.24101e-15 1.78229e-37
37.5312 1.23966e-11 -1.88755 1e-10 1.85157e-14 7.01859e-34
37.5312 1.24897e-11 1.88755 1e-10 6.57356e-15 -2.02314e-32
36.998 4.7 -1.88755 1e-10 -3.44392e-15 -1.14144e-39
36.998 4.7 1.88755 1e-10 -3.44392e-15 -1.191e-39
36.998 1.22501e-11 -1.88755 1e-10 1.89839e-14 -3.69596e-44
36.998 1.23287e-11 1.88755 1e-10 7.11961e-15 -2.97559e-43
36.4711 4.7 -1.88755 9.99973e-11 -3.55068e-15 1.89396e-32
36.4711 4.7 1.88755 9.99973e-11 -3.55068e-15 1.89396e-32
36.4711 1.2108e-11 -1.88755 1e-10 1.94307e-14 0
36.4711 1.21713e-11 1.88755 1e-10 7.64593e-15 0
35.9502 4.7 -1.88755 1.00004e-10 -3.78184e-15 1.9078e-32
35.9502 4.7 1.88755 1.00004e-10 -3.78184e-15 1.9078e-32
35.9502 1.19706e-11 -1.88755 1e-10 1.98624e-14 5.79595e-34
35.9502 1.20172e-11 1.88755 1e-10 8.33247e-15 -2.32439e-40
35.4353 4.7 -1.88755 9.99991e-11 -3.91312e-15 0
35.4353 4.7 1.88755 9.99991e-11 -3.91312e-15 0
35.4353 1.18386e-11 -1.88755 1e-10 2.02843e-14 5.73279e-34
35.4353 1.18671e-11 1.88755 1e-10 9.00107e-15 -2.10426e-32
34.9264 4.7 -1.88755 1.00001e-10 -4.17409e-15 -1.92955e-32
34.9264 4.7 1.88755 1.00001e-10 -4.17409e-15 -1.92955e-32
34.9264 1.17122e-11 -1.88755 1e-10 2.06852e-14 -1.96702e-44
34.9264 1.1721e-11 1.88755 1e-10 9.81877e-15 -8.59051e-51
34.4234 4.7 -1.88755 9.99973e-11 -4.34179e-15 0
34.4234 4.7 1.88755 9.99973e-11 -4.34179e-15 0
34.4234 1.15917e-11 -1.88755 1e-10 2.1043e-14 6.28429e-33
34.4234 1.15795e-11 1.88755 1e-10 1.06801e-14 -7.84391e-40
33.9204 4.7 -1.88755 9.99982e-11 -4.65781e-15 0
33.9204 4.7 1.88755 9.99982e-11 -4.65781e-15 0
33.9204 1.14778e-11 -1.88755 1e-10 2.13282e-14 -1.46533e-34
33.9204 1.14414e-11 1.88755 1e-10 1.17586e-14 -1.23312e-39
33.4352 4.7 -1.88755 9.99993e-11 -4.85945e-15 0
33.4352 4.7 1.88755 9.99993e-11 -4.85945e-15 0
33.4352 1.1373e-11 -1.88755 1e-10 2.15519e-14 -6.30954e-33
33.4352 1.13095e-11 1.88755 1e-10 1.27894e-14 -4.25061e-38
32.9672 4.7 -1.88755 9.99982e-11 -5.20113e-15 2.01711e-32
32.9672 4.7 1.88755 9.99982e-11 -5.20113e-15 2.01711e-32
32.9672 1.12783e-11 -1.88755 1e-10 2.16953e-14 -6.51657e-33
32.9672 1.11856e-11 1.88755 1e-10 1.40283e-14 0
32.5157 4.7 -1.88755 1.00008e-10 -5.43967e-15 0
32.5157 4.7 1.88755 1.00008e-10 -5.43967e-15 0
32.5157 1.11937e-11 -1.88755 1e-10 2.17268e-14 -1.20086e-34
32.5157 1.10702e-11 1.88755 1e-10 1.52541e-14 1.6931e-43
32.0803 4.7 -1.88755 1e-10 -5.81068e-15 0
32.0803 4.7 1.88755 1e-10 -5.81068e-15 0
32.0803 1.11193e-11 -1.88755 1e-10 2.16517e-14 6.30314e-33
32.0803 1.09627e-11 1.88755 1e-10 1.67183e-14 2.3939e-32
31.6602 4.7 -1.88755 1.00005e-10 -6.08877e-15 -2.98711e-38
31.6602 4.7 1.88755 1.00005e-10 -6.08877e-15 -2.98711e-38
31.6602 1.10553e-11 -1.88755 1e-10 2.14802e-14 -6.59435e-33
31.6602 1.08634e-11 1.88755 1e-10 1.81173e-14 -1.69166e-38
31.255 4.7 -1.88755 9.9996e-11 -6.49193e-15 2.19224e-32
31.255 4.7 1.88755 9.9996e-11 -6.49193e-15 2.19224e-32
31.255 1.10016e-11 -1.88755 1e-10 2.11867e-14 1.89154e-34
31.255 1.07719e-11 1.88755 1e-10 1.97259e-14 -2.52957e-32
30.8642 4.7 -1.88755 9.99934e-11 -6.81111e-15 0
30.8642 4.7 1.88755 9.99934e-11 -6.81111e-15 0
30.8642 1.09581e-11 -1.88755 1e-10 2.07603e-14 1.35216e-32
30.8642 1.06884e-11 1.88755 1e-10 2.12823e-14 6.91366e-39
30.4871 4.7 -1.88755 9.99968e-11 -7.2468e-15 0
30.4871 4.7 1.88755 9.99968e-11 -7.2468e-15 0
30.4871 1.09249e-11 -1.88755 1e-10 2.01946e-14 -6.64665e-35
30.4871 1.06126e-11 1.88755 1e-10 2.30816e-14 -4.46466e-40
30.1235 4.7 -1.88755 1.00001e-10 -7.60843e-15 9.82152e-38
30.1235 4.7 1.88755 1.00001e-10 -7.60843e-15 9.85781e-38
30.1235 1.0902e-11 -1.88755 1e-10 1.94827e-14 -1.02713e-32
30.1235 1.05445e-11 1.88755 1e-10 2.47464e-14 -4.2324e-38
29.7727 4.7 -1.88755 9.99979e-11 -8.07077e-15 -1.1658e-32
29.7727 4.7 1.88755 9.99979e-11 -8.07077e-15 -1.1658e-32
29.7727 1.08892e-11 -1.88755 1e-10 1.86261e-14 -3.58255e-33
29.7727 1.04841e-11 1.88755 1e-10 2.6666e-14 -1.36401e-39
29.4343 4.7 -1.88755 9.99987e-11 -8.47063e-15 0
29.4343 4.7 1.88755 9.99987e-11 -8.47063e-15 0
29.4343 1.08865e-11 -1.88755 1e-10 1.76412e-14 -1.44151e-34
29.4343 1.04313e-11 1.88755 1e-10 2.83976e-14 -1.4374e-32
29.1079 4.7 -1.88755 9.99948e-11 -8.95559e-15 0
29.1079 4.7 1.88755 9.99948e-11 -8.95559e-15 0
29.1079 1.08938e-11 -1.88755 1e-10 1.65151e-14 -1.44284e-44
29.1079 1.0386e-11 1.88755 1e-10 3.03208e-14 -5.65806e-50
28.793 4.7 -1.88755 9.99988e-11 -9.38839e-15 -1.20126e-32
28.793 4.7 1.88755 9.99988e-11 -9.38839e-15 -1.20126e-32
28.793 1.09109e-11 -1.88755 1e-10 1.52425e-14 -3.2361e-33
28.793 1.03482e-11 1.88755 1e-10 3.2073e-14 -1.09644e-43
28.4893 4.7 -1.88755 1.00002e-10 -9.89039e-15 7.6183e-38
28.4893 4.7 1.88755 1.00002e-10 -9.89039e-15 7.6562e-38
28.4893 1.09376e-11 -1.88755 1e-10 1.38206e-14 -3.24401e-33
28.4893 1.03177e-11 1.88755 1e-10 3.40265e-14 1.54145e-32
28.1964 4.7 -1.88755 9.99976e-11 -1.03473e-14 -1.21481e-32
28.1964 4.7 1.88755 9.99976e-11 -1.03473e-14 -1.21481e-32
28.1964 1.09738e-11 -1.88755 1e-10 1.22555e-14 -1.52811e-44
28.1964 1.02946e-11 1.88755 1e-10 3.57261e-14 -1.14681e-43
27.9138 4.7 -1.88755 9.99961e-11 -1.0856e-14 0
27.9138 4.7 1.88755 9.99961e-11 -1.0856e-14 0
27.9138 1.10193e-11 -1.88755 1e-10 1.05396e-14 4.22809e-34
27.9138 1.02787e-11 1.88755 1e-10 3.7613e-14 -2.57818e-40
27.6412 4.7 -1.88755 9.99998e-11 -1.13297e-14 0
27.6412 4.7 1.88755 9.99998e-11 -1.13297e-14 0
27.6412 1.10739e-11 -1.88755 1e-10 8.67826e-15 3.53365e-33
27.6412 1.02701e-11 1.88755 1e-10 3.92027e-14 1.64463e-32
27.3783 4.7 -1.88755 1e-10 -1.18381e-14 1.21727e-32
27.3783 4.7 1.88755 1e-10 -1.18381e-14 1.21727e-32
27.3783 1.11376e-11 -1.88755 1e-10 6.67341e-15 3.12672e-33
27.3783 1.02686e-11 1.88755 1e-10 4.09611e-14 -1.67845e-32
27.1246 4.7 -1.88755 9.99999e-11 -1.23169e-14 0
27.1246 4.7 1.88755 9.99999e-11 -1.23169e-14 0
27.1246 1.121e-11 -1.88755 1e-10 4.50115e-15 0
27.1246 1.02743e-11 1.88755 1e-10 4.24222e-14 0
26.88 4.7 -1.88755 9.99994e-11 -1.28159e-14 0
26.88 4.7 1.88755 9.99994e-11 -1.28159e-14 0
26.88 1.1291e-11 -1.88755 1e-10 2.19718e-15 0
26.88 1.0287e-11 1.88755 9.99999e-11 4.40214e-14 0
26.644 4.7 -1.88755 1.00001e-10 -1.32905e-14 2.78557e-38
26.644 4.7 1.88755 1.00001e-10 -1.32905e-14 2.78557e-38
26.644 1.13805e-11 -1.88755 1e-10 -2.29584e-16 -3.34843e-34
26.644 1.03066e-11 1.88755 1e-10 4.53917e-14 0
26.4164 4.7 -1.88755 9.99956e-11 -1.37707e-14 -5.90742e-33
26.4164 4.7 1.88755 9.99956e-11 -1.37707e-14 -5.90742e-33
26.4164 1.14783e-11 -1.88755 1e-10 -2.80547e-15 -3.37736e-34
26.4164 1.03333e-11 1.88755 1e-10 4.65807e-14 -9.05078e-33
26.1968 4.7 -1.88755 1.00005e-10 -1.42318e-14 -6.67395e-38
26.1968 4.7 1.88755 1.00005e-10 -1.42318e-14 -6.68961e-38
26.1968 1.15841e-11 -1.88755 1e-10 -5.52522e-15 -1.83617e-33
26.1968 1.03667e-11 1.88755 1e-10 4.78329e-14 0
25.985 4.7 -1.88755 9.99903e-11 -1.46844e-14 5.72352e-33
25.985 4.7 1.88755 9.99903e-11 -1.46844e-14 5.72352e-33
25.985 1.1698e-11 -1.88755 1e-10 -8.37731e-15 -1.85431e-33
25.985 1.0407e-11 1.88755 1e-10 4.88287e-14 0
25.7807 4.7 -1.88755 1.00003e-10 -1.51221e-14 3.96426e-38
25.7807 4.7 1.88755 1.00003e-10 -1.51221e-14 3.95565e-38
25.7807 1.18197e-11 -1.88755 1e-10 -1.13804e-14 1.85013e-33
25.7807 1.04539e-11 1.88755 1e-10 4.97678e-14 0
25.5836 4.7 -1.88755 9.99942e-11 -1.55442e-14 0
25.5836 4.7 1.88755 9.99942e-11 -1.55442e-14 0
25.5836 1.19491e-11 -1.88755 1e-10 -1.45302e-14 1.87048e-33
25.5836 1.05076e-11 1.88755 1e-10 5.05135e-14 0
25.3935 4.7 -1.88755 9.9995e-11 -1.59501e-14 -5.31899e-33
25.3935 4.7 1.88755 9.9995e-11 -1.59501e-14 -5.31899e-33
25.3935 1.20859e-11 -1.88755 1e-10 -1.7817e-14 1.86255e-33
25.3935 1.05677e-11 1.88755 9.99999e-11 5.12895e-14 1.11972e-38
25.2101 4.7 -1.88755 1.00007e-10 -1.63401e-14 -5.48749e-39
25.2101 4.7 1.88755 1.00007e-10 -1.63401e-14 -5.48305e-39
25.2101 1.22302e-11 -1.88755 1e-10 -2.12662e-14 3.75293e-33
25.2101 1.06343e-11 1.88755 9.99998e-11 5.17743e-14 3.83606e-38
25.0332 4.7 -1.88755 9.99997e-11 -1.67098e-14 -4.95801e-33
25.0332 4.7 1.88755 9.99997e-11 -1.67098e-14 -4.95801e-33
25.0332 1.23818e-11 -1.88755 1e-10 -2.48605e-14 1.89126e-33
25.0332 1.07075e-11 1.88755 1e-10 5.21907e-14 3.02304e-39
24.8626 4.7 -1.88755 9.99954e-11 -1.70579e-14 0
24.8626 4.7 1.88755 9.99954e-11 -1.70579e-14 0
24.8626 1.25404e-11 -1.88755 1e-10 -2.85601e-14 -1.21173e-33
24.8626 1.07869e-11 1.88755 9.99998e-11 5.25884e-14 -1.32037e-38
24.698 4.7 -1.88755 1.00005e-10 -1.73933e-14 2.2602e-33
24.698 4.7 1.88755 1.00005e-10 -1.73933e-14 2.2602e-33
24.698 1.27059e-11 -1.88755 1e-10 -3.24021e-14 -1.22781e-33
24.698 1.08725e-11 1.88755 1e-10 5.27199e-14 -5.15336e-33
24.5393 4.7 -1.88755 9.99983e-11 -1.7701e-14 1.72195e-40
24.5393 4.7 1.88755 9.99983e-11 -1.7701e-14 1.72195e-40
24.5393 1.28784e-11 -1.88755 1e-10 -3.6402e-14 -2.93832e-34
24.5393 1.09641e-11 1.88755 9.99997e-11 5.27905e-14 -4.41652e-39
24.3861 4.7 -1.88755 1.00007e-10 -1.79976e-14 2.00198e-33
24.3861 4.7 1.88755 1.00007e-10 -1.79977e-14 2.00198e-33
24.3861 1.30576e-11 -1.88755 1e-10 -4.04916e-14 6.43813e-34
24.3861 1.10621e-11 1.88755 9.99999e-11 5.26538e-14 -5.25682e-33
24.2384 4.7 -1.88755 1.00001e-10 -1.82656e-14 -1.85778e-33
24.2384 4.7 1.88755 1.00001e-10 -1.82656e-14 -1.85778e-33
24.2384 1.32433e-11 -1.88755 1e-10 -4.46819e-14 9.55208e-34
24.2384 1.1166e-11 1.88755 9.99998e-11 5.25087e-14 7.97601e-39
24.0959 4.7 -1.88755 1.00002e-10 -1.85215e-14 9.41053e-40
24.0959 4.7 1.88755 1.00002e-10 -1.85215e-14 9.35993e-40
24.0959 1.34354e-11 -1.88755 1e-10 -4.90514e-14 -1.15592e-44
24.0959 1.12754e-11 1.88755 1e-10 5.21767e-14 -3.88761e-44
23.9585 4.7 -1.88755 9.99999e-11 -1.87531e-14 1.53869e-33
23.9585 4.7 1.88755 9.99999e-11 -1.87531e-14 1.53869e-33
23.9585 1.36339e-11 -1.88755 1e-10 -5.35259e-14 -9.3943e-34
23.9585 1.1391e-11 1.88755 1e-10 5.16285e-14 -1.46998e-39
23.8259 4.7 -1.88755 9.99951e-11 -1.89709e-14 0
23.8259 4.7 1.88755 9.99951e-11 -1.89709e-14 0
23.8259 1.38386e-11 -1.88755 1e-10 -5.80815e-14 -9.53575e-34
23.8259 1.15121e-11 1.88755 1e-10 5.11324e-14 3.93321e-44
23.698 4.7 -1.88755 9.99882e-11 -1.91653e-14 0
23.698 4.7 1.88755 9.99882e-11 -1.91653e-14 0
23.698 1.40492e-11 -1.88755 1e-10 -6.27701e-14 -9.33768e-34
23.698 1.16387e-11 1.88755 9.99999e-11 5.04498e-14 -2.91644e-39
23.5746 4.7 -1.88755 1.00001e-10 -1.93508e-14 9.82188e-34
23.5746 4.7 1.88755 1.00001e-10 -1.93508e-14 9.82188e-34
23.5746 1.42659e-11 -1.88755 1e-10 -6.75909e-14 -1.41298e-33
23.5746 1.17708e-11 1.88755 1e-10 4.96275e-14 1.97996e-44
23.4557 4.7 -1.88755 1.00002e-10 -1.95139e-14 5.46776e-40
23.4557 4.7 1.88755 1.00002e-10 -1.95139e-14 5.46776e-40
23.4557 1.44884e-11 -1.88755 1e-10 -7.25178e-14 -4.72031e-34
23.4557 1.19084e-11 1.88755 1e-10 4.8741e-14 -1.98272e-44
23.3409 4.7 -1.88755 1.00004e-10 -1.96653e-14 2.79325e-34
23.3409 4.7 1.88755 1.00004e-10 -1.96653e-14 2.79325e-34
23.3409 1.47165e-11 -1.88755 1e-10 -7.75659e-14 2.78735e-34
23.3409 1.2051e-11 1.88755 1e-10 4.78212e-14 0
23.2302 4.7 -1.88755 1.00005e-10 -1.97979e-14 1.65503e-34
23.2302 4.7 1.88755 1.00005e-10 -1.97979e-14 1.65503e-34
23.2302 1.49503e-11 -1.88755 1e-10 -8.27428e-14 5.56115e-34
23.2302 1.2199e-11 1.88755 1e-10 4.67219e-14 -2.71886e-33
23.1234 4.7 -1.88755 1.00006e-10 -1.99201e-14 -4.63894e-35
23.1234 4.7 1.88755 1.00006e-10 -1.99201e-14 -4.63894e-35
23.1234 1.51895e-11 -1.88755 1e-10 -8.80363e-14 2.7732e-34
23.1234 1.2352e-11 1.88755 9.99996e-11 4.5596e-14 -2.70978e-33
23.0203 4.7 -1.88755 1.00008e-10 -2.00267e-14 -7.8026e-35
23.0203 4.7 1.88755 1.00008e-10 -2.00267e-14 -7.8026e-35
23.0203 1.54342e-11 -1.88755 1e-10 -9.34656e-14 2.96767e-45
23.0203 1.25101e-11 1.88755 1e-10 4.43695e-14 0
22.921 4.7 -1.88755 1.00001e-10 -2.01214e-14 0
22.921 4.7 1.88755 1.00001e-10 -2.01214e-14 0
22.921 1.56843e-11 -1.88755 1e-10 -9.90315e-14 3.01593e-45
22.921 1.26731e-11 1.88755 1e-10 4.3074e-14 1.94943e-44
22.8251 4.7 -1.88755 1.00006e-10 -2.02046e-14 0
22.8251 4.7 1.88755 1.00006e-10 -2.02046e-14 0
22.8251 1.59398e-11 -1.88755 1e-10 -1.04755e-13 2.4729e-34
22.8251 1.2841e-11 1.88755 1e-10 4.17193e-14 0
22.7326 4.7 -1.88755 9.99909e-11 -2.02744e-14 0
22.7326 4.7 1.88755 9.99909e-11 -2.02744e-14 0
22.7326 1.62006e-11 -1.88755 1e-10 -1.10653e-13 4.35683e-34
22.7326 1.30138e-11 1.88755 1e-10 4.02929e-14 -2.62372e-33
22.6435 4.7 -1.88755 1.0001e-10 -2.034e-14 -2.37544e-38
22.6435 4.7 1.88755 1.0001e-10 -2.034e-14 -2.37493e-38
22.6435 1.64668e-11 -1.88755 1e-10 -1.16766e-13 1.87373e-34
22.6435 1.31915e-11 1.88755 9.99999e-11 3.88533e-14 2.58826e-33
22.5574 4.7 -1.88755 1.00001e-10 -2.03899e-14 7.79204e-34
22.5574 4.7 1.88755 1.00001e-10 -2.03899e-14 7.79204e-34
22.5574 1.67387e-11 -1.88755 1e-10 -1.23194e-13 -2.93922e-34
22.5574 1.33741e-11 1.88755 9.99999e-11 3.73362e-14 -5.87753e-40
22.4744 4.7 -1.88755 9.9993e-11 -2.0431e-14 -4.67527e-34
22.4744 4.7 1.88755 9.9993e-11 -2.0431e-14 -4.67527e-34
22.4744 1.70164e-11 -1.88755 1e-10 -1.29961e-13 -2.98814e-34
22.4744 1.35618e-11 1.88755 9.99997e-11 3.56701e-14 -1.24938e-33
22.3944 4.7 -1.88755 9.99995e-11 -2.04663e-14 -5.48086e-34
22.3944 4.7 1.88755 9.99995e-11 -2.04663e-14 -5.48086e-34
22.3944 1.73003e-11 -1.88755 1e-10 -1.37009e-13 0
22.3944 1.37549e-11 1.88755 1e-10 3.40084e-14 0
22.3172 4.7 -1.88755 9.99985e-11 -2.04907e-14 0
22.3172 4.7 1.88755 9.99985e-11 -2.04907e-14 0
22.3172 1.75908e-11 -1.88755 1e-10 -1.44462e-13 -1.85917e-34
22.3172 1.39537e-11 1.88755 1e-10 3.2516e-14 0
22.2427 4.7 -1.88755 1.00001e-10 -2.05066e-14 0
22.2427 4.7 1.88755 1.00001e-10 -2.05066e-14 0
22.2427 1.78884e-11 -1.88755 1e-10 -1.52662e-13 7.41127e-35
22.2427 1.4158e-11 1.88755 9.99995e-11 3.10937e-14 1.27557e-39
22.1708 4.7 -1.88755 9.99964e-11 -2.05106e-14 0
22.1708 4.7 1.88755 9.99964e-11 -2.05106e-14 0
22.1708 1.81946e-11 -1.88755 1e-10 -1.61924e-13 1.86101e-34
22.1708 1.43685e-11 1.88755 1e-10 2.9641e-14 1.11942e-33
22.1015 4.7 -1.88755 9.9996e-11 -2.05129e-14 0
22.1015 4.7 1.88755 9.9996e-11 -2.05129e-14 0
22.1015 1.85115e-11 -1.88755 1e-10 -1.73054e-13 -8.30255e-35
22.1015 1.45865e-11 1.88755 1e-10 2.8385e-14 -1.07785e-33
22.0347 4.7 -1.88755 1e-10 -2.05128e-14 1.33576e-40
22.0347 4.7 1.88755 1e-10 -2.05128e-14 1.19693e-40
22.0347 1.88418e-11 -1.88755 1e-10 -1.87616e-13 1.55129e-34
22.0347 1.48142e-11 1.88755 9.99999e-11 2.66759e-14 3.96149e-40
21.9702 4.7 -1.88755 9.99981e-11 -2.04797e-14 1.08389e-33
21.9702 4.7 1.88755 9.99981e-11 -2.04797e-14 1.08389e-33
21.9702 1.9192e-11 -1.88755 1e-10 -2.08361e-13 1.58019e-34
21.9702 1.50527e-11 1.88755 1e-10 2.57884e-14 0
21.908 4.7 -1.88755 9.99899e-11 -2.04501e-14 -1.18154e-33
21.908 4.7 1.88755 9.99899e-11 -2.04501e-14 -1.18154e-33
21.908 1.95912e-11 -1.88755 9.99999e-11 -2.71501e-13 -4.58241e-39
21.908 1.5308e-11 1.88755 1e-10 3.00437e-14 0
21.848 4.7 -1.88755 9.99997e-11 -2.05911e-14 0
21.848 4.7 1.88755 9.99997e-11 -2.05911e-14 0
21.848 2.00727e-11 -1.88755 1e-10 -4.9353e-13 3.10839e-32
21.848 1.56408e-11 1.88755 1e-10 -3.99654e-14 -3.5396e-39
21.7879 4.7 -1.88755 9.99986e-11 -2.05898e-14 1.34688e-33
21.7879 4.7 1.88755 9.99986e-11 -2.05898e-14 1.34688e-33
21.7876 0.000188157 -1.88755 1e-10 -9.41963e-13 3.18897e-32
21.7876 0.000188157 1.88755 1e-10 -3.89262e-13 1.99422e-31
21.7278 4.7 -1.88755 1.00008e-10 -2.03112e-14 4.95924e-38
21.7278 4.7 1.88755 1.00008e-10 -2.03112e-14 4.97149e-38
21.7272 0.00075262 -1.88755 1e-10 -1.51789e-12 -4.12388e-32
21.7272 0.00075262 1.88755 1e-10 -9.80244e-13 9.06053e-35
21.6677 4.7 -1.88755 9.99952e-11 -2.00263e-14 0
21.6677 4.7 1.88755 9.99952e-11 -2.00263e-14 0
21.6668 0.00169337 -1.88755 1e-10 -2.12107e-12 -1.45553e-31
21.6668 0.00169337 1.88755 9.99993e-11 -1.6086e-12 -5.1053e-31
21.6075 4.7 -1.88755 1.00004e-10 -1.96848e-14 -6.47014e-39
21.6075 4.7 1.88755 1.00004e-10 -1.96848e-14 -6.49883e-39
21.6063 0.00301036 -1.88755 1e-10 -2.73358e-12 -1.0541e-31
21.6063 0.00301036 1.88755 1e-10 -2.24062e-12 -6.7559e-31
21.5474 4.7 -1.88755 1.00002e-10 -1.93472e-14 -8.2951e-34
21.5474 4.7 1.88755 1.00002e-10 -1.93472e-14 -8.29511e-34
21.546 0.00470355 -1.88755 1e-10 -3.35091e-12 -9.96751e-33
21.546 0.00470355 1.88755 9.99997e-11 -2.87825e-12 -9.33323e-35
21.4873 4.7 -1.88755 9.99997e-11 -1.90001e-14 2.55759e-33
21.4873 4.7 1.88755 9.99997e-11 -1.90001e-14 2.55759e-33
21.4856 0.00677288 -1.88755 9.99996e-11 -3.97065e-12 -1.606e-31
21.4856 0.00677288 1.88755 9.99992e-11 -3.51699e-12 -1.54474e-31
21.4272 4.7 -1.88755 1.00008e-10 -1.86486e-14 -1.72578e-33
21.4272 4.7 1.88755 1.00008e-10 -1.86486e-14 -1.72578e-33
21.4252 0.00921825 -1.88755 1e-10 -4.59213e-12 -5.88572e-31
21.4252 0.00921825 1.88755 1e-10 -4.15779e-12 -9.64029e-31
21.3671 4.7 -1.88755 1.00006e-10 -1.82812e-14 -1.46844e-32
21.3671 4.7 1.88755 1.00006e-10 -1.82812e-14 -1.46844e-32
21.3649 0.0120396 -1.88755 9.99999e-11 -5.2148e-12 -4.48093e-31
21.3649 0.0120396 1.88755 9.99993e-11 -4.79966e-12 -1.83127e-30
21.307 4.7 -1.88755 1.00003e-10 -1.79003e-14 3.14004e-37
21.307 4.7 1.88755 1.00003e-10 -1.79003e-14 3.14702e-37
21.3045 0.0152368 -1.88755 9.99993e-11 -5.83845e-12 -8.77073e-31
21.3045 0.0152368 1.88755 9.99994e-11 -5.44312e-12 -1.31531e-32
21.2469 4.7 -1.88755 9.99996e-11 -1.75012e-14 2.02162e-33
21.2469 4.7 1.88755 9.99996e-11 -1.75012e-14 2.02162e-33
21.2442 0.0188097 -1.88755 1e-10 -6.46302e-12 -8.77594e-31
21.2442 0.0188097 1.88755 1e-10 -6.08771e-12 -3.69368e-30
21.1868 4.7 -1.88755 9.99965e-11 -1.70642e-14 -2.01668e-33
21.1868 4.7 1.88755 9.99965e-11 -1.70642e-14 -2.01668e-33
21.1839 0.0227581 -1.88755 9.99983e-11 -7.08821e-12 -8.99288e-31
21.1839 0.0227581 1.88755 9.99994e-11 -6.73365e-12 1.52035e-32
21.1267 4.7 -1.88755 9.99922e-11 -1.66108e-14 -3.41016e-32
21.1267 4.7 1.88755 9.99922e-11 -1.66108e-14 -3.41016e-32
21.1237 0.0270821 -1.88755 9.99994e-11 -7.71436e-12 -9.03644e-31
21.1237 0.0270821 1.88755 1e-10 -7.38089e-12 -1.52167e-33
21.0665 4.7 -1.88755 9.99988e-11 -1.62021e-14 2.19028e-39
21.0665 4.7 1.88755 9.99988e-11 -1.62021e-14 1.94692e-39
21.0634 0.0317812 -1.88755 1e-10 -8.34123e-12 -2.46315e-30
21.0634 0.0317812 1.88755 9.99995e-11 -8.02959e-12 -1.36154e-29
21.0064 4.7 -1.88755 1.00005e-10 -1.58184e-14 -3.6551e-32
21.0064 4.7 1.88755 1.00005e-10 -1.58184e-14 -3.6551e-32
21.0032 0.0368555 -1.88755 1e-10 -8.9687e-12 -3.9046e-30
21.0032 0.0368555 1.88755 1e-10 -8.6796e-12 -1.58429e-29
20.9463 4.7 -1.88755 1e-10 -1.5425e-14 -3.7795e-32
20.9463 4.7 1.88755 1e-10 -1.5425e-14 -3.7795e-32