/*--------------------------------*- C++ -*----------------------------------*\
| =========                 |                                                 |
| \\      /  F ield         | OpenFOAM: The Open Source CFD Toolbox           |
|  \\    /   O peration     | Version:  2412                                  |
|   \\  /    A nd           | Website:  www.openfoam.com                      |
|    \\/     M anipulation  |                                                 |
\*---------------------------------------------------------------------------*/
FoamFile
{
    version     2.0;
    format      ascii;
    arch        "LSB;label=32;scalar=64";
    class       volScalarField;
    location    "710";
    object      epsilon;
}
// * * * * * * * * * * * * * * * * * * * * * * * * * * * * * * * * * * * * * //

dimensions      [0 2 -3 0 0 0 0];

internalField   nonuniform List<scalar> 
32240
(
0.00425637
0.000865488
0.000436659
0.000499706
0.000512088
0.000447987
0.000370023
0.00030104
0.000244733
0.000199623
0.000163447
0.000134264
0.000110595
9.13425e-05
7.56843e-05
6.29816e-05
5.27192e-05
4.44681e-05
3.78654e-05
3.26036e-05
2.84251e-05
2.51177e-05
2.25094e-05
2.04632e-05
1.88716e-05
1.76509e-05
1.67371e-05
1.60812e-05
1.56463e-05
1.54055e-05
1.53404e-05
1.54408e-05
1.57091e-05
1.61236e-05
1.66262e-05
1.72156e-05
1.79051e-05
1.87173e-05
1.96821e-05
2.08364e-05
2.22247e-05
2.39016e-05
2.5934e-05
2.84052e-05
3.14193e-05
3.5107e-05
3.96334e-05
4.52072e-05
5.20922e-05
6.06222e-05
7.12208e-05
8.44271e-05
0.000100932
0.000121626
0.000147666
0.000180546
0.000222124
0.000274382
0.000338208
0.00040893
0.000463106
0.000443273
0.000391216
0.000798897
0.00391559
0.00433183
0.000879681
0.000445914
0.000510701
0.000521355
0.00045506
0.000375322
0.000304961
0.000247587
0.000201663
0.000164888
0.000135289
0.000111354
9.19587e-05
7.62478e-05
6.35537e-05
5.33352e-05
4.51434e-05
3.86007e-05
3.33915e-05
2.92549e-05
2.59787e-05
2.33927e-05
2.13624e-05
1.97826e-05
1.85721e-05
1.76683e-05
1.70237e-05
1.66024e-05
1.63779e-05
1.63317e-05
1.64528e-05
1.67428e-05
1.71772e-05
1.76963e-05
1.82986e-05
1.89979e-05
1.98172e-05
2.07868e-05
2.19435e-05
2.33318e-05
2.50056e-05
2.70309e-05
2.94896e-05
3.24837e-05
3.61423e-05
4.06286e-05
4.615e-05
5.29712e-05
6.14297e-05
7.1957e-05
8.51063e-05
0.00010159
0.000122333
0.000148536
0.000181745
0.000223878
0.000276977
0.000341974
0.000414206
0.000470092
0.000451329
0.000397647
0.000808087
0.00396018
0.00436021
0.000885697
0.000450444
0.000516304
0.000526033
0.00045851
0.000377788
0.000306689
0.000248775
0.000202464
0.000165427
0.000135657
0.000111622
9.21783e-05
7.64572e-05
6.37763e-05
5.35831e-05
4.54217e-05
3.89081e-05
3.37235e-05
2.96061e-05
2.63442e-05
2.37686e-05
2.1746e-05
2.01724e-05
1.89674e-05
1.80691e-05
1.74306e-05
1.70161e-05
1.67996e-05
1.67623e-05
1.68935e-05
1.71944e-05
1.76383e-05
1.81642e-05
1.87712e-05
1.94736e-05
2.02947e-05
2.12649e-05
2.24214e-05
2.38083e-05
2.54795e-05
2.75006e-05
2.99525e-05
3.29369e-05
3.65815e-05
4.10485e-05
4.65445e-05
5.33336e-05
6.17549e-05
7.22429e-05
8.5354e-05
0.00010181
0.000122548
0.000148788
0.000182103
0.000224444
0.00027789
0.00034342
0.000416414
0.000473276
0.000455222
0.000400937
0.000813638
0.00399057
0.00441255
0.000895763
0.000457209
0.000524426
0.000532914
0.000463775
0.000381752
0.000309661
0.000250989
0.000204101
0.000166627
0.000136553
0.00011233
9.27902e-05
7.70396e-05
6.43714e-05
5.42126e-05
4.6088e-05
3.96076e-05
3.44503e-05
3.03537e-05
2.71067e-05
2.45415e-05
2.25263e-05
2.09586e-05
1.97592e-05
1.88675e-05
1.82371e-05
1.78331e-05
1.76295e-05
1.76078e-05
1.77566e-05
1.80769e-05
1.85389e-05
1.90794e-05
1.96979e-05
2.04092e-05
2.12372e-05
2.22126e-05
2.33728e-05
2.47621e-05
2.64341e-05
2.84538e-05
3.09018e-05
3.38785e-05
3.75108e-05
4.19594e-05
4.74298e-05
5.41847e-05
6.25617e-05
7.29979e-05
8.60629e-05
0.000102496
0.00012326
0.000149612
0.000183174
0.00022595
0.000280078
0.000346577
0.000420844
0.000479217
0.000462249
0.000406622
0.000821564
0.00402818
0.00445302
0.000903238
0.000461983
0.000530123
0.000537733
0.000467372
0.000384333
0.000311465
0.000252219
0.000204925
0.000167182
0.00013694
0.000112625
9.30474e-05
7.72952e-05
6.46472e-05
5.45215e-05
4.64366e-05
3.99943e-05
3.4869e-05
3.07975e-05
2.75693e-05
2.5018e-05
2.30134e-05
2.14544e-05
2.02631e-05
1.93796e-05
1.87584e-05
1.83649e-05
1.81731e-05
1.81646e-05
1.83277e-05
1.86624e-05
1.91364e-05
1.96855e-05
2.03096e-05
2.1024e-05
2.1853e-05
2.28279e-05
2.39861e-05
2.53719e-05
2.70385e-05
2.90506e-05
3.14876e-05
3.4449e-05
3.80601e-05
4.24807e-05
4.7915e-05
5.46262e-05
6.29546e-05
7.3342e-05
8.63605e-05
0.000102754
0.000123498
0.00014987
0.000183522
0.000226496
0.000280976
0.000348035
0.000423102
0.000482453
0.000466115
0.000409881
0.000827234
0.00405996
0.00450646
0.000914217
0.000470004
0.000539685
0.000545637
0.000473334
0.000388777
0.000314759
0.000254638
0.000206685
0.000168473
0.000137923
0.000113426
9.37621e-05
7.79867e-05
6.53518e-05
5.52499e-05
4.71881e-05
4.0765e-05
3.56539e-05
3.15917e-05
2.83689e-05
2.58203e-05
2.38172e-05
2.22597e-05
2.10708e-05
2.01916e-05
1.95769e-05
1.91926e-05
1.90129e-05
1.90194e-05
1.92001e-05
1.95542e-05
2.00467e-05
2.06109e-05
2.12473e-05
2.19715e-05
2.28088e-05
2.37907e-05
2.4955e-05
2.63465e-05
2.80183e-05
3.00349e-05
3.24753e-05
3.54384e-05
3.90487e-05
4.34644e-05
4.88884e-05
5.5582e-05
6.38834e-05
7.42326e-05
8.72085e-05
0.000103575
0.000124334
0.000150804
0.000184689
0.000228099
0.000283291
0.000351399
0.000427884
0.000488947
0.000473907
0.00041626
0.000836077
0.00410185
0.00454887
0.000921784
0.000474642
0.000545215
0.000550356
0.00047685
0.000391273
0.000316485
0.000255815
0.000207488
0.00016903
0.00013833
0.000113756
9.40657e-05
7.8298e-05
6.56926e-05
5.56345e-05
4.76196e-05
4.12391e-05
3.61631e-05
3.21281e-05
2.89258e-05
2.63927e-05
2.44017e-05
2.28545e-05
2.16754e-05
2.08063e-05
2.02029e-05
1.98315e-05
1.96665e-05
1.96892e-05
1.98874e-05
2.02592e-05
2.07666e-05
2.13413e-05
2.19844e-05
2.27123e-05
2.35506e-05
2.45315e-05
2.5693e-05
2.70797e-05
2.87447e-05
3.07517e-05
3.3179e-05
3.61243e-05
3.97106e-05
4.40949e-05
4.94788e-05
5.61232e-05
6.43678e-05
7.46574e-05
8.75775e-05
0.000103895
0.000124623
0.000151098
0.000185056
0.000228652
0.000284202
0.000352897
0.000430243
0.000492383
0.000478082
0.000419803
0.000842113
0.00413531
0.0046052
0.000933499
0.000483371
0.000555539
0.000558831
0.000483221
0.000396007
0.000319976
0.00025836
0.000209338
0.000170401
0.000139398
0.000114654
9.48869e-05
7.91006e-05
6.65018e-05
5.64558e-05
4.84528e-05
4.2081e-05
3.70098e-05
3.2976e-05
2.97725e-05
2.72369e-05
2.52434e-05
2.36948e-05
2.25161e-05
2.165e-05
2.10525e-05
2.06903e-05
2.05378e-05
2.05762e-05
2.07929e-05
2.11854e-05
2.17121e-05
2.23028e-05
2.29588e-05
2.36973e-05
2.45445e-05
2.55334e-05
2.67026e-05
2.80971e-05
2.977e-05
3.17852e-05
3.42207e-05
3.71736e-05
4.07663e-05
4.51545e-05
5.05384e-05
5.71772e-05
6.54089e-05
7.56766e-05
8.85648e-05
0.000104854
0.000125586
0.000152138
0.000186307
0.000230329
0.000286607
0.000356416
0.0004353
0.000499321
0.000486474
0.000426725
0.000851646
0.00418043
0.0046503
0.000941561
0.000488357
0.00056143
0.000563801
0.000486885
0.000398577
0.000321733
0.000259557
0.000210159
0.000170982
0.000139839
0.00011503
9.52493e-05
7.94825e-05
6.69265e-05
5.69328e-05
4.89805e-05
4.26523e-05
3.76159e-05
3.36089e-05
3.04253e-05
2.79049e-05
2.59236e-05
2.43857e-05
2.32176e-05
2.23628e-05
2.17782e-05
2.14307e-05
2.12951e-05
2.13523e-05
2.15894e-05
2.20026e-05
2.25469e-05
2.31501e-05
2.38142e-05
2.45571e-05
2.54059e-05
2.63939e-05
2.75602e-05
2.89498e-05
3.06158e-05
3.26214e-05
3.50441e-05
3.79796e-05
4.1549e-05
4.59065e-05
5.12505e-05
5.7839e-05
6.601e-05
7.6209e-05
8.90279e-05
0.000105257
0.000125944
0.000152483
0.000186706
0.000230897
0.000287528
0.000357946
0.00043775
0.00050294
0.000490937
0.000430548
0.000858084
0.00421596
0.0047098
0.000953986
0.000497722
0.000572421
0.000572769
0.000493598
0.000403539
0.000325371
0.000262195
0.000212085
0.000172432
0.000140999
0.000116034
9.6185e-05
8.03972e-05
6.78368e-05
5.78453e-05
4.98957e-05
4.35681e-05
3.85295e-05
3.45179e-05
3.13284e-05
2.8802e-05
2.68157e-05
2.52747e-05
2.41061e-05
2.3254e-05
2.26756e-05
2.23381e-05
2.22163e-05
2.22907e-05
2.25482e-05
2.29838e-05
2.35492e-05
2.41694e-05
2.48472e-05
2.56011e-05
2.64591e-05
2.74556e-05
2.86302e-05
3.00285e-05
3.17038e-05
3.37196e-05
3.61531e-05
3.90999e-05
4.26802e-05
4.70473e-05
5.23986e-05
5.89908e-05
6.71602e-05
7.73513e-05
9.01557e-05
0.000106364
0.00012705
0.000153651
0.000188063
0.000232661
0.000290031
0.000361628
0.000443107
0.00051038
0.000500036
0.000438119
0.000868387
0.00426443
0.00475755
0.000962536
0.000503063
0.000578678
0.000577996
0.000497414
0.000406188
0.000327168
0.000263418
0.00021293
0.000173046
0.000141488
0.000116472
9.6624e-05
8.0872e-05
6.83657e-05
5.84308e-05
5.0532e-05
4.42461e-05
3.92397e-05
3.52521e-05
3.20805e-05
2.95678e-05
2.75927e-05
2.6062e-05
2.49041e-05
2.40639e-05
2.34995e-05
2.31783e-05
2.30754e-05
2.31711e-05
2.34518e-05
2.39111e-05
2.44967e-05
2.51316e-05
2.5819e-05
2.65784e-05
2.74388e-05
2.84349e-05
2.96071e-05
3.10012e-05
3.26704e-05
3.46779e-05
3.71002e-05
4.00318e-05
4.35916e-05
4.79312e-05
5.32459e-05
5.97904e-05
6.78998e-05
7.80187e-05
9.07425e-05
0.000106873
0.000127498
0.000154068
0.00018851
0.000233256
0.000290969
0.000363195
0.000445657
0.000514209
0.00050484
0.000442279
0.000875298
0.00430236
0.00482061
0.000975763
0.000513149
0.000590407
0.000587501
0.000504487
0.00041138
0.000330947
0.000266153
0.000214941
0.000174588
0.000142753
0.000117593
9.76785e-05
8.18953e-05
6.93759e-05
5.94352e-05
5.15321e-05
4.52406e-05
4.02267e-05
3.62304e-05
3.30497e-05
3.05287e-05
2.85471e-05
2.70125e-05
2.58539e-05
2.50168e-05
2.44595e-05
2.41498e-05
2.40625e-05
2.41776e-05
2.44812e-05
2.49656e-05
2.55743e-05
2.62276e-05
2.69294e-05
2.77003e-05
2.857e-05
2.95747e-05
3.07552e-05
3.21581e-05
3.38372e-05
3.58557e-05
3.82903e-05
4.12352e-05
4.48088e-05
4.9162e-05
5.44893e-05
6.10443e-05
6.91608e-05
7.9283e-05
9.20065e-05
0.000108136
0.000128764
0.000155385
0.000189994
0.000235125
0.000293577
0.000367041
0.00045132
0.00052218
0.000514707
0.000450569
0.000886434
0.0043544
0.00487114
0.000984839
0.00051889
0.000597071
0.000593007
0.000508468
0.000414118
0.000332793
0.000267411
0.000215824
0.000175252
0.000143308
0.000118115
9.82207e-05
8.24881e-05
7.00283e-05
6.0144e-05
5.22885e-05
4.60343e-05
4.10482e-05
3.7072e-05
3.39059e-05
3.13961e-05
2.94241e-05
2.78988e-05
2.67507e-05
2.59259e-05
2.53835e-05
2.50916e-05
2.50252e-05
2.51641e-05
2.54938e-05
2.60051e-05
2.6637e-05
2.73071e-05
2.80203e-05
2.87978e-05
2.96708e-05
3.06759e-05
3.18549e-05
3.32547e-05
3.4929e-05
3.69411e-05
3.93669e-05
4.22999e-05
4.58571e-05
5.01876e-05
5.54838e-05
6.19969e-05
7.00584e-05
8.0111e-05
9.27509e-05
0.000108789
0.000129335
0.000155904
0.00019052
0.000235773
0.000294552
0.000368659
0.000453987
0.000526247
0.000519893
0.00045511
0.00089387
0.00439498
0.00493773
0.000998844
0.000529689
0.000609529
0.000603046
0.000515895
0.00041953
0.000336709
0.000270241
0.000217922
0.000176892
0.000144686
0.000119355
9.93861e-05
8.36166e-05
7.11385e-05
6.12433e-05
5.33786e-05
4.71142e-05
4.21168e-05
3.81288e-05
3.49514e-05
3.24317e-05
3.04523e-05
2.89229e-05
2.77744e-05
2.69537e-05
2.64199e-05
2.61413e-05
2.6093e-05
2.62541e-05
2.66098e-05
2.71491e-05
2.78067e-05
2.8497e-05
2.92256e-05
3.0015e-05
3.08974e-05
3.19107e-05
3.30977e-05
3.4506e-05
3.61901e-05
3.82135e-05
4.06522e-05
4.35995e-05
4.71723e-05
5.15191e-05
5.68313e-05
6.33594e-05
7.14342e-05
8.14977e-05
9.41472e-05
0.000110197
0.000130765
0.000157385
0.000192149
0.000237764
0.000297276
0.00037267
0.000459966
0.000534789
0.000530623
0.000464233
0.000905947
0.00445096
0.00499109
0.00100843
0.000535806
0.000616577
0.000608836
0.000520062
0.000422386
0.000338629
0.000271551
0.000218859
0.000177626
0.000145334
0.000119994
0.000100064
8.43527e-05
7.19338e-05
6.20905e-05
5.4267e-05
4.80333e-05
4.30576e-05
3.90846e-05
3.59177e-05
3.34062e-05
3.14343e-05
2.99131e-05
2.87746e-05
2.79664e-05
2.74484e-05
2.71893e-05
2.71641e-05
2.73517e-05
2.77367e-05
2.83065e-05
2.89905e-05
2.97001e-05
3.04418e-05
3.12392e-05
3.21257e-05
3.31404e-05
3.43268e-05
3.57331e-05
3.74141e-05
3.94332e-05
4.18661e-05
4.48054e-05
4.83666e-05
5.26966e-05
5.79848e-05
6.44789e-05
7.25069e-05
8.25081e-05
9.50785e-05
0.000111035
0.000131504
0.000158046
0.000192792
0.000238505
0.000298328
0.000374379
0.000462792
0.000539154
0.000536265
0.00046923
0.000913992
0.00449455
0.00506229
0.00102352
0.000547597
0.000629926
0.000619394
0.000527764
0.000427935
0.000342626
0.000274465
0.000221056
0.000179377
0.000146824
0.00012134
0.000101337
8.55879e-05
7.31487e-05
6.32913e-05
5.54548e-05
4.92073e-05
4.42173e-05
4.023e-05
3.70501e-05
3.45277e-05
3.2548e-05
3.10229e-05
2.98848e-05
2.9082e-05
2.85744e-05
2.83309e-05
2.83265e-05
2.85397e-05
2.89542e-05
2.95559e-05
3.02686e-05
3.10005e-05
3.17588e-05
3.25685e-05
3.34644e-05
3.44869e-05
3.56807e-05
3.70951e-05
3.87855e-05
4.08157e-05
4.32617e-05
4.6216e-05
4.97939e-05
5.41419e-05
5.94484e-05
6.59605e-05
7.40051e-05
8.40213e-05
9.66055e-05
0.000112578
0.000133076
0.000159682
0.000194571
0.000240618
0.000301158
0.000378536
0.000469065
0.000548288
0.000548011
0.000479398
0.000927226
0.00455516
0.00511953
0.00103393
0.000554449
0.000637825
0.000625871
0.000532424
0.000431127
0.000344774
0.000275935
0.00022213
0.000180253
0.000147632
0.000122155
0.000102193
8.64966e-05
7.41078e-05
6.42921e-05
5.64869e-05
5.02614e-05
4.52857e-05
4.13076e-05
3.81337e-05
3.56162e-05
3.36418e-05
3.21235e-05
3.09949e-05
3.0205e-05
2.97143e-05
2.9492e-05
2.95132e-05
2.97562e-05
3.02038e-05
3.08399e-05
3.15827e-05
3.23366e-05
3.31098e-05
3.39288e-05
3.48298e-05
3.58544e-05
3.70485e-05
3.8462e-05
4.01509e-05
4.21791e-05
4.46225e-05
4.75731e-05
5.1145e-05
5.54832e-05
6.07745e-05
6.7263e-05
7.52728e-05
8.52395e-05
9.77567e-05
0.000113644
0.000134043
0.000160553
0.000195392
0.000241508
0.000302353
0.000380446
0.000472246
0.000553217
0.000554369
0.000485007
0.000935991
0.00460209
0.00519296
0.00104936
0.000566478
0.000651251
0.000636394
0.000540024
0.000436544
0.000348647
0.000278766
0.000224294
0.000182017
0.000149171
0.000123577
0.000103558
8.78329e-05
7.54274e-05
6.55982e-05
5.7779e-05
5.15381e-05
4.65463e-05
4.25524e-05
3.93644e-05
3.68355e-05
3.48532e-05
3.33315e-05
3.22043e-05
3.14212e-05
3.0943e-05
3.07391e-05
3.07844e-05
3.10569e-05
3.15381e-05
3.22105e-05
3.29856e-05
3.37642e-05
3.45555e-05
3.53873e-05
3.62976e-05
3.73297e-05
3.85305e-05
3.99513e-05
4.16488e-05
4.36877e-05
4.61441e-05
4.91099e-05
5.26993e-05
5.70566e-05
6.23678e-05
6.88761e-05
7.69043e-05
8.68869e-05
9.94173e-05
0.000115317
0.000135736
0.000162295
0.000197258
0.000243668
0.000305149
0.000384463
0.000478317
0.000562246
0.000566289
0.000495602
0.000949786
0.00466548
0.00525632
0.0010613
0.000574778
0.00066067
0.000643967
0.000545431
0.000440254
0.000351173
0.000280539
0.000225636
0.000183146
0.000150222
0.000124622
0.00010463
8.89425e-05
7.65717e-05
6.67694e-05
5.89687e-05
5.27389e-05
4.77529e-05
4.37614e-05
4.05744e-05
3.80467e-05
3.60672e-05
3.4551e-05
3.3433e-05
3.26633e-05
3.22033e-05
3.20228e-05
3.20965e-05
3.24026e-05
3.29211e-05
3.36325e-05
3.44418e-05
3.52454e-05
3.60537e-05
3.68963e-05
3.78125e-05
3.88473e-05
4.0049e-05
4.14699e-05
4.31674e-05
4.52066e-05
4.76635e-05
5.06299e-05
5.42192e-05
5.85748e-05
6.3881e-05
7.03788e-05
7.83886e-05
8.83417e-05
0.000100829
0.000116669
0.000137015
0.000163499
0.000198424
0.000244915
0.000306754
0.000386937
0.000482382
0.000568568
0.000574595
0.000502985
0.000960455
0.0047197
0.00533166
0.00107691
0.00058689
0.000674043
0.000654382
0.00055288
0.0004455
0.000354894
0.000283265
0.000227755
0.00018492
0.000151815
0.000126127
0.000106095
9.03887e-05
7.80053e-05
6.81905e-05
6.03752e-05
5.41289e-05
4.91255e-05
4.51173e-05
4.19155e-05
3.93761e-05
3.7389e-05
3.58701e-05
3.47547e-05
3.39936e-05
3.35486e-05
3.33895e-05
3.3491e-05
3.3831e-05
3.43881e-05
3.51408e-05
3.59867e-05
3.6818e-05
3.7646e-05
3.8502e-05
3.94275e-05
4.04691e-05
4.16767e-05
4.3104e-05
4.48093e-05
4.68583e-05
4.93277e-05
5.23091e-05
5.59158e-05
6.02905e-05
6.56166e-05
7.2134e-05
8.01611e-05
9.01276e-05
0.000102622
0.000118464
0.000138811
0.00016531
0.000200301
0.000247
0.000309362
0.000390656
0.000488103
0.00057727
0.000586272
0.000513548
0.000974326
0.00478443
0.00540136
0.00109044
0.000596729
0.000685
0.000663023
0.000558997
0.000449696
0.000357782
0.000285341
0.000229375
0.000186316
0.000153122
0.000127417
0.000107398
9.17114e-05
7.93461e-05
6.95433e-05
6.17333e-05
5.54873e-05
5.04808e-05
4.64681e-05
4.32622e-05
4.07203e-05
3.87337e-05
3.72189e-05
3.61124e-05
3.53655e-05
3.49403e-05
3.48071e-05
3.49405e-05
3.53183e-05
3.59177e-05
3.67149e-05
3.75996e-05
3.84594e-05
3.93067e-05
4.01748e-05
4.1107e-05
4.21518e-05
4.33608e-05
4.47889e-05
4.64954e-05
4.85469e-05
5.102e-05
5.40066e-05
5.76196e-05
6.20011e-05
6.73332e-05
7.38541e-05
8.18801e-05
9.18382e-05
0.000104314
0.000120126
0.00014043
0.000166886
0.000201865
0.000248666
0.000311414
0.000393661
0.000492928
0.000584824
0.000596452
0.000522794
0.000986972
0.00484608
0.00547938
0.00110646
0.000609147
0.000698551
0.000673496
0.000566407
0.000454855
0.000361421
0.000288027
0.000231506
0.00018815
0.000154811
0.000129039
0.000108991
9.32906e-05
8.09133e-05
7.10965e-05
6.32698e-05
5.70052e-05
5.19796e-05
4.79489e-05
4.47274e-05
4.21736e-05
4.01796e-05
3.8663e-05
3.75606e-05
3.68243e-05
3.64168e-05
3.63085e-05
3.64739e-05
3.68907e-05
3.75342e-05
3.83786e-05
3.9305e-05
4.01958e-05
4.10649e-05
4.19473e-05
4.28886e-05
4.39395e-05
4.51534e-05
4.65867e-05
4.82999e-05
5.03602e-05
5.28449e-05
5.58461e-05
5.94765e-05
6.38775e-05
6.92304e-05
7.57722e-05
8.38171e-05
9.379e-05
0.000106274
0.000122086
0.000142383
0.000168835
0.000203846
0.000250794
0.000313983
0.000397273
0.000498559
0.000593588
0.000608439
0.000533842
0.00100144
0.00491395
0.00555519
0.0011215
0.000620448
0.000710904
0.000683076
0.000573125
0.000459454
0.000364614
0.000290372
0.000233388
0.000189807
0.000156375
0.000130576
0.000110527
9.48316e-05
8.24574e-05
7.26388e-05
6.48056e-05
5.85311e-05
5.34944e-05
4.94528e-05
4.62223e-05
4.36626e-05
4.16669e-05
4.01533e-05
3.90598e-05
3.83385e-05
3.79529e-05
3.78736e-05
3.80749e-05
3.85345e-05
3.92262e-05
4.01213e-05
4.10921e-05
4.20153e-05
4.29062e-05
4.38021e-05
4.47507e-05
4.58051e-05
4.70205e-05
4.8455e-05
5.01704e-05
5.22348e-05
5.47261e-05
5.77366e-05
6.13788e-05
6.57939e-05
7.11623e-05
7.77194e-05
8.57778e-05
9.57598e-05
0.000108246
0.000124049
0.000144328
0.000170758
0.000205772
0.000252823
0.00031639
0.00040066
0.000503928
0.000602097
0.000620192
0.00054477
0.00101586
0.00498239
0.00563684
0.0011382
0.000633466
0.000724917
0.000693798
0.000580627
0.000464625
0.000368257
0.000293095
0.000235602
0.000191762
0.000158209
0.000132357
0.000112283
9.65718e-05
8.4182e-05
7.43452e-05
6.64912e-05
6.01946e-05
5.51361e-05
5.10746e-05
4.78273e-05
4.52552e-05
4.32523e-05
4.17376e-05
4.06497e-05
3.99414e-05
3.95765e-05
3.95261e-05
3.97642e-05
4.02685e-05
4.10109e-05
4.196e-05
4.29783e-05
4.39366e-05
4.48516e-05
4.57627e-05
4.67204e-05
4.778e-05
4.89991e-05
5.04374e-05
5.21581e-05
5.42304e-05
5.67328e-05
5.97579e-05
6.34183e-05
6.78546e-05
7.32466e-05
7.98285e-05
8.79111e-05
9.79144e-05
0.000110416
0.000126227
0.000146504
0.000172929
0.000207959
0.00025512
0.000319069
0.000404333
0.000509672
0.000611222
0.000632948
0.000556789
0.0010314
0.00505492
0.00571859
0.00115468
0.000646167
0.000738542
0.000704202
0.000587851
0.000469554
0.000371707
0.000295684
0.000237735
0.000193677
0.00016003
0.000134143
0.000114057
9.83371e-05
8.59369e-05
7.60857e-05
6.82144e-05
6.18991e-05
5.68221e-05
5.2744e-05
4.94834e-05
4.69024e-05
4.48958e-05
4.33835e-05
4.23047e-05
4.16128e-05
4.12722e-05
4.12542e-05
4.15331e-05
4.20861e-05
4.28833e-05
4.38906e-05
4.49597e-05
4.5955e-05
4.68946e-05
4.78206e-05
4.87861e-05
4.98491e-05
5.10695e-05
5.25089e-05
5.42322e-05
5.63096e-05
5.88205e-05
6.18579e-05
6.55347e-05
6.99911e-05
7.54063e-05
8.20135e-05
9.01217e-05
0.000100149
0.00011267
0.000128492
0.000148771
0.000175192
0.000210233
0.000257489
0.00032179
0.000408022
0.000515453
0.000620512
0.000646091
0.000569323
0.00104751
0.00512995
0.00580473
0.00117233
0.000660074
0.000753266
0.000715333
0.000595549
0.000474819
0.000375429
0.000298516
0.000240096
0.000195809
0.000162056
0.000136121
0.000116007
0.000100267
8.7844e-05
7.7968e-05
7.007e-05
6.37278e-05
5.86253e-05
5.45246e-05
5.12456e-05
4.86513e-05
4.66376e-05
4.51251e-05
4.40535e-05
4.3377e-05
4.30604e-05
4.30757e-05
4.33971e-05
4.40013e-05
4.48568e-05
4.59261e-05
4.70497e-05
4.80847e-05
4.90511e-05
4.99935e-05
5.09679e-05
5.20351e-05
5.32577e-05
5.46993e-05
5.64266e-05
5.85109e-05
6.10325e-05
6.40851e-05
6.77815e-05
7.22619e-05
7.7705e-05
8.43429e-05
9.24832e-05
0.000102541
0.00011509
0.000130933
0.000151224
0.00017765
0.000212707
0.000260054
0.000324691
0.000411876
0.000521442
0.000630197
0.000659964
0.000582739
0.00106452
0.00520842
0.00589246
0.00119023
0.000674178
0.000768097
0.000726489
0.000603212
0.00048003
0.000379114
0.000301343
0.000242484
0.000197989
0.000164144
0.000138166
0.000118028
0.000102266
8.982e-05
7.99182e-05
7.1993e-05
6.56238e-05
6.04963e-05
5.63739e-05
5.30778e-05
5.0472e-05
4.84531e-05
4.69425e-05
4.58807e-05
4.52223e-05
4.4933e-05
4.49848e-05
4.53527e-05
4.60123e-05
4.69308e-05
4.80668e-05
4.92487e-05
5.0326e-05
5.13203e-05
5.2279e-05
5.32614e-05
5.43316e-05
5.55546e-05
5.69966e-05
5.8726e-05
6.08157e-05
6.33469e-05
6.6414e-05
7.01301e-05
7.46355e-05
8.01085e-05
8.67801e-05
9.49569e-05
0.000105052
0.000117636
0.000133508
0.00015382
0.00018026
0.00021534
0.000262774
0.00032773
0.000415849
0.000527585
0.000640215
0.000674508
0.000597007
0.00108242
0.00529034
0.00598387
0.00120906
0.000689225
0.000783737
0.000738151
0.000611183
0.000485454
0.000382979
0.000304346
0.00024505
0.000200347
0.000166405
0.000140377
0.000120205
0.000104412
9.19346e-05
8.19995e-05
7.40406e-05
6.76387e-05
6.24814e-05
5.83333e-05
5.50167e-05
5.23966e-05
5.03704e-05
4.88602e-05
4.78072e-05
4.71669e-05
4.69054e-05
4.69953e-05
4.74122e-05
4.81306e-05
4.91162e-05
5.03236e-05
5.1568e-05
5.26907e-05
5.37149e-05
5.46912e-05
5.56823e-05
5.67555e-05
5.7979e-05
5.94215e-05
6.11532e-05
6.32487e-05
6.57904e-05
6.88732e-05
7.26109e-05
7.71438e-05
8.26497e-05
8.93592e-05
9.75773e-05
0.000107716
0.000120341
0.000136251
0.000156594
0.000183056
0.000218162
0.00026568
0.000330934
0.000419957
0.000533878
0.00065054
0.000689681
0.000612116
0.00110117
0.0053756
0.00607774
0.00122842
0.000704786
0.000799765
0.000750023
0.000619249
0.000490925
0.000386895
0.000307423
0.00024771
0.000202811
0.000168776
0.000142697
0.000122487
0.00010666
9.41463e-05
8.41743e-05
7.61788e-05
6.97423e-05
6.45538e-05
6.03794e-05
5.70423e-05
5.44085e-05
5.2376e-05
5.08677e-05
4.98254e-05
4.92055e-05
4.89746e-05
4.9106e-05
4.95758e-05
5.03577e-05
5.14155e-05
5.26999e-05
5.40114e-05
5.51825e-05
5.62383e-05
5.72325e-05
5.82317e-05
5.93068e-05
6.05293e-05
6.19707e-05
6.37034e-05
6.58036e-05
6.83552e-05
7.1454e-05
7.52141e-05
7.97762e-05
8.53179e-05
9.20692e-05
0.000100334
0.000110523
0.000123199
0.000139158
0.000159542
0.00018604
0.000221184
0.000268788
0.00033433
0.000424237
0.000540369
0.000661256
0.000705646
0.000628287
0.00112099
0.00546489
0.00617508
0.00124863
0.000721204
0.00081648
0.000762298
0.000627542
0.000496553
0.000390954
0.000310652
0.000250532
0.00020544
0.00017131
0.000145173
0.00012492
0.00010905
9.64936e-05
8.64787e-05
7.84414e-05
7.1966e-05
6.67428e-05
6.25391e-05
5.91792e-05
5.65297e-05
5.44897e-05
5.29826e-05
5.19509e-05
5.13519e-05
5.11531e-05
5.13281e-05
5.1854e-05
5.27036e-05
5.38388e-05
5.52057e-05
5.65894e-05
5.78124e-05
5.89018e-05
5.9915e-05
6.09224e-05
6.19991e-05
6.322e-05
6.46594e-05
6.63924e-05
6.84971e-05
7.10585e-05
7.41736e-05
7.79573e-05
8.25503e-05
8.81303e-05
9.4927e-05
0.000103243
0.000113488
0.000126222
0.000142238
0.000162675
0.000189218
0.000224407
0.000272096
0.000337909
0.000428668
0.000547015
0.000672289
0.000722306
0.00064545
0.0011418
0.00555791
0.00627547
0.00126955
0.000738346
0.000833748
0.000774884
0.000635998
0.000502286
0.00039512
0.000314005
0.000253493
0.000208213
0.000173986
0.000147788
0.000127483
0.000111564
9.89594e-05
8.88967e-05
8.08138e-05
7.42965e-05
6.90364e-05
6.4802e-05
6.14185e-05
5.87534e-05
5.67062e-05
5.52012e-05
5.41817e-05
5.36056e-05
5.34415e-05
5.36637e-05
5.425e-05
5.51724e-05
5.63909e-05
5.78466e-05
5.93079e-05
6.05866e-05
6.17117e-05
6.27444e-05
6.37597e-05
6.48367e-05
6.60545e-05
6.74905e-05
6.92225e-05
7.13305e-05
7.39013e-05
7.70329e-05
8.0841e-05
8.54668e-05
9.10882e-05
9.79344e-05
0.000106308
0.000116615
0.000129417
0.000145501
0.000166003
0.000192606
0.000227854
0.000275636
0.000341712
0.0004333
0.000553873
0.000683723
0.000739822
0.000663831
0.00116382
0.00565534
0.00637939
0.00129133
0.000756358
0.000851672
0.000787836
0.000644651
0.000508158
0.000399423
0.000317512
0.000256619
0.000211156
0.000176829
0.000150562
0.000130199
0.000114225
0.000101565
9.14494e-05
8.33163e-05
7.67533e-05
7.14534e-05
6.7186e-05
6.37771e-05
6.1095e-05
5.904e-05
5.75369e-05
5.653e-05
5.5978e-05
5.58505e-05
5.61226e-05
5.67733e-05
5.77736e-05
5.90814e-05
6.06328e-05
6.21776e-05
6.3516e-05
6.46793e-05
6.57324e-05
6.67553e-05
6.78319e-05
6.90453e-05
7.04765e-05
7.22061e-05
7.43165e-05
7.6896e-05
8.00442e-05
8.38773e-05
8.85375e-05
9.42025e-05
0.000101102
0.000109537
0.000119914
0.00013279
0.000148952
0.000169531
0.000196205
0.000231523
0.000279404
0.000345731
0.000438113
0.000560899
0.000695467
0.000758058
0.000683324
0.00118693
0.00575684
0.00648677
0.00131396
0.000775244
0.000870242
0.000801143
0.000653498
0.000514168
0.000403869
0.000321178
0.000259915
0.00021427
0.000179838
0.000153496
0.000133067
0.000117029
0.000104308
9.41333e-05
8.59455e-05
7.93334e-05
7.3991e-05
6.96889e-05
6.62536e-05
6.35541e-05
6.14913e-05
5.99908e-05
5.89977e-05
5.84718e-05
5.83838e-05
5.87095e-05
5.94292e-05
6.05133e-05
6.19173e-05
6.35718e-05
6.52066e-05
6.66092e-05
6.78129e-05
6.88874e-05
6.99175e-05
7.09923e-05
7.21995e-05
7.36241e-05
7.53496e-05
7.7461e-05
8.00486e-05
8.32132e-05
8.70722e-05
9.17684e-05
9.748e-05
0.000104436
0.000112939
0.000123392
0.000136353
0.000152604
0.000173273
0.000200036
0.00023544
0.000283432
0.000350008
0.00044316
0.000568154
0.000707608
0.000777189
0.000704192
0.00121137
0.00586317
0.00659789
0.0013375
0.000795079
0.000889494
0.000814814
0.00066254
0.000520322
0.000408466
0.000325015
0.000263392
0.000217566
0.000183026
0.000156601
0.000136098
0.00011999
0.000107201
9.69616e-05
8.87148e-05
8.20502e-05
7.66627e-05
7.23237e-05
6.88605e-05
6.61427e-05
6.40717e-05
6.25741e-05
6.15956e-05
6.10972e-05
6.1051e-05
6.14338e-05
6.22272e-05
6.3401e-05
6.49085e-05
6.6674e-05
6.8406e-05
6.98776e-05
7.11246e-05
7.22212e-05
7.32581e-05
7.43298e-05
7.55291e-05
7.6945e-05
7.86645e-05
8.07754e-05
8.33699e-05
8.65503e-05
9.04355e-05
9.51689e-05
0.000100929
0.000107946
0.000116521
0.000127057
0.000140111
0.000156461
0.000177233
0.000204098
0.000239603
0.000287715
0.000354536
0.000448426
0.000575603
0.000720083
0.000797123
0.000726387
0.0012371
0.00597408
0.00671278
0.00136198
0.000815904
0.000909449
0.000828862
0.000671787
0.000526634
0.000413232
0.000329038
0.000267064
0.000221056
0.0001864
0.000159884
0.000139298
0.000123111
0.000110247
9.99378e-05
9.16274e-05
8.49065e-05
7.94712e-05
7.50934e-05
7.16012e-05
6.88644e-05
6.67853e-05
6.5291e-05
6.43284e-05
6.38596e-05
6.3858e-05
6.4302e-05
6.51743e-05
6.64446e-05
6.80636e-05
6.99491e-05
7.17859e-05
7.33318e-05
7.46249e-05
7.57446e-05
7.67877e-05
7.78547e-05
7.90438e-05
8.04487e-05
8.21601e-05
8.42685e-05
8.68686e-05
9.00645e-05
9.39763e-05
9.87482e-05
0.00010456
0.000111641
0.000120294
0.00013092
0.000144075
0.000160537
0.000181426
0.00020841
0.000244034
0.000292281
0.000359349
0.000453952
0.000583289
0.000732942
0.000817976
0.000750117
0.00126431
0.00609017
0.00683173
0.00138748
0.000837791
0.000930131
0.000843286
0.000681236
0.000533106
0.000418173
0.000333256
0.00027094
0.000224748
0.000189969
0.000163352
0.000142675
0.000126401
0.000113456
0.000103072
9.46934e-05
8.7913e-05
8.24273e-05
7.80089e-05
7.44863e-05
7.17299e-05
6.96424e-05
6.81519e-05
6.72062e-05
6.67687e-05
6.68144e-05
6.73238e-05
6.82805e-05
6.96543e-05
7.13934e-05
7.34084e-05
7.53584e-05
7.69844e-05
7.83268e-05
7.94706e-05
8.05192e-05
8.15797e-05
8.27561e-05
8.41473e-05
8.58479e-05
8.79517e-05
9.05559e-05
9.37662e-05
9.77044e-05
0.000102516
0.000108381
0.00011553
0.000124265
0.000134989
0.000148254
0.000164837
0.000185857
0.000212976
0.000248737
0.000297135
0.000364451
0.000459738
0.00059119
0.000746119
0.000839632
0.000775307
0.00129291
0.00621117
0.00695472
0.00141401
0.000860784
0.00095156
0.000858099
0.000690898
0.000539757
0.000423309
0.000337688
0.000275034
0.000228654
0.000193744
0.000167017
0.000146238
0.00012987
0.000116836
0.000106371
9.79197e-05
9.10762e-05
8.55375e-05
8.10766e-05
7.75223e-05
7.47457e-05
7.26499e-05
7.11636e-05
7.0236e-05
6.9832e-05
6.99282e-05
7.05073e-05
7.15544e-05
7.30395e-05
7.49081e-05
7.7063e-05
7.91356e-05
8.0848e-05
8.22432e-05
8.34121e-05
8.44653e-05
8.55172e-05
8.66782e-05
8.80526e-05
8.97396e-05
9.18363e-05
9.44424e-05
9.76662e-05
0.000101631
0.000106483
0.000112404
0.000119624
0.000128447
0.000139274
0.000152659
0.000169377
0.000190542
0.000217813
0.000253731
0.000302299
0.000369872
0.000465822
0.00059935
0.000759669
0.000862217
0.000802196
0.00132314
0.00633776
0.00708211
0.00144167
0.000884967
0.000973767
0.000873301
0.000700774
0.00054659
0.00042865
0.000342342
0.000279356
0.000232783
0.000197733
0.000170886
0.000149996
0.000133525
0.000120395
0.000109844
0.000101316
9.4406e-05
8.88117e-05
8.43065e-05
8.07195e-05
7.7922e-05
7.58178e-05
7.43364e-05
7.34281e-05
7.30596e-05
7.32093e-05
7.38629e-05
7.50066e-05
7.66112e-05
7.86195e-05
8.09259e-05
8.31311e-05
8.49368e-05
8.63886e-05
8.75836e-05
8.86404e-05
8.96813e-05
9.08237e-05
9.2178e-05
9.38478e-05
9.59343e-05
9.85402e-05
0.000101776
0.000105766
0.000110659
0.000116637
0.000123932
0.000132847
0.000143786