/*--------------------------------*- C++ -*----------------------------------*\
| =========                 |                                                 |
| \\      /  F ield         | OpenFOAM: The Open Source CFD Toolbox           |
|  \\    /   O peration     | Version:  2412                                  |
|   \\  /    A nd           | Website:  www.openfoam.com                      |
|    \\/     M anipulation  |                                                 |
\*---------------------------------------------------------------------------*/
FoamFile
{
    version     2.0;
    format      ascii;
    arch        "LSB;label=32;scalar=64";
    class       volScalarField;
    location    "710";
    object      k;
}
// * * * * * * * * * * * * * * * * * * * * * * * * * * * * * * * * * * * * * //

dimensions      [0 2 -2 0 0 0 0];

internalField   nonuniform List<scalar> 
32240
(
0.00141277
0.000532523
0.000678604
0.00115892
0.00146373
0.00158983
0.00162645
0.00162097
0.00159556
0.00156072
0.00152185
0.0014821
0.00144363
0.00140808
0.00137677
0.00135073
0.00133067
0.00131696
0.00130968
0.00130866
0.0013135
0.00132377
0.00133895
0.0013585
0.00138191
0.00140864
0.00143816
0.00146981
0.00150284
0.00153627
0.00156892
0.00159932
0.00162521
0.00164139
0.00164735
0.00164529
0.00163669
0.00162307
0.00160583
0.0015862
0.00156525
0.00154388
0.00152286
0.00150288
0.00148456
0.00146848
0.00145517
0.00144515
0.00143889
0.00143682
0.00143926
0.00144639
0.0014582
0.00147433
0.00149398
0.00151558
0.00153621
0.0015503
0.00154686
0.00150293
0.00137104
0.00106623
0.000617278
0.000497552
0.00133625
0.00142927
0.000539467
0.000690462
0.00117635
0.00148108
0.00160622
0.00164192
0.00163569
0.00160984
0.00157493
0.00153649
0.00149774
0.00146087
0.00142753
0.00139897
0.00137611
0.0013595
0.00134937
0.00134567
0.00134811
0.00135629
0.00136972
0.0013879
0.00141032
0.0014365
0.00146597
0.00149824
0.00153275
0.00156884
0.00160555
0.00164151
0.00167461
0.00170217
0.00171886
0.00172423
0.00172033
0.00170946
0.00169343
0.00167376
0.00165167
0.0016282
0.00160421
0.00158045
0.00155761
0.00153627
0.00151701
0.00150037
0.00148687
0.001477
0.00147124
0.00146998
0.0014735
0.00148189
0.00149494
0.00151196
0.00153148
0.00155064
0.00156391
0.00156024
0.00151652
0.00138502
0.00107987
0.000626182
0.000502588
0.00134623
0.00143535
0.000542794
0.000696584
0.00118525
0.00148968
0.00161407
0.00164904
0.00164223
0.00161599
0.00158093
0.0015426
0.00150424
0.00146805
0.00143564
0.00140828
0.00138679
0.00137167
0.00136307
0.00136089
0.00136481
0.00137442
0.00138921
0.00140869
0.00143234
0.00145971
0.0014903
0.0015236
0.00155903
0.00159586
0.00163309
0.00166941
0.00170293
0.00173098
0.00174797
0.00175344
0.00174974
0.00173885
0.00172253
0.00170229
0.00167941
0.00165498
0.00162991
0.00160498
0.00158089
0.00155824
0.00153761
0.00151953
0.00150453
0.00149311
0.00148575
0.00148287
0.00148481
0.0014917
0.0015034
0.00151926
0.00153786
0.00155639
0.00156934
0.00156565
0.0015222
0.00139112
0.00108611
0.000630296
0.000505126
0.00135296
0.00144664
0.000547785
0.000705295
0.00119818
0.00150277
0.00162674
0.00166134
0.00165436
0.0016282
0.00159352
0.00155595
0.0015188
0.00148429
0.00145398
0.00142899
0.00141007
0.00139762
0.00139173
0.00139223
0.00139874
0.00141084
0.00142802
0.00144976
0.0014756
0.00150506
0.00153768
0.00157296
0.00161033
0.00164904
0.0016881
0.00172612
0.00176112
0.0017903
0.00180783
0.00181328
0.00180904
0.00179724
0.0017797
0.00175802
0.00173351
0.00170729
0.0016803
0.00165333
0.00162708
0.00160216
0.00157915
0.0015586
0.00154102
0.00152694
0.00151684
0.00151116
0.00151025
0.00151429
0.00152324
0.00153662
0.00155315
0.00157011
0.00158203
0.00157785
0.00153439
0.00140359
0.00109842
0.000638441
0.000509618
0.00136129
0.0014553
0.000551184
0.00071094
0.00120645
0.00151093
0.00163429
0.00166828
0.00166081
0.00163436
0.00159965
0.00156234
0.00152577
0.00149215
0.00146309
0.00143968
0.00142257
0.00141206
0.00140814
0.00141057
0.00141897
0.00143287
0.00145176
0.00147516
0.00150259
0.00153361
0.00156776
0.00160455
0.0016434
0.00168356
0.00172401
0.00176331
0.00179943
0.00182944
0.00184734
0.00185269
0.00184799
0.00183543
0.00181692
0.00179407
0.00176826
0.00174063
0.00171212
0.00168356
0.00165565
0.00162899
0.00160417
0.00158173
0.00156218
0.00154606
0.00153386
0.00152608
0.00152312
0.00152526
0.00153254
0.0015445
0.00155988
0.00157601
0.00158745
0.00158315
0.00153987
0.00140939
0.00110422
0.000642222
0.000512045
0.00136828
0.00146673
0.00055713
0.000721795
0.00122209
0.0015264
0.00164901
0.00168236
0.00167454
0.00164809
0.00161382
0.00157744
0.00154229
0.00151054
0.00148362
0.00146252
0.00144784
0.00143979
0.00143832
0.00144313
0.00145384
0.00146995
0.00149095
0.00151638
0.00154577
0.00157868
0.00161469
0.00165328
0.0016939
0.00173578
0.00177786
0.0018187
0.00185616
0.00188724
0.00190568
0.00191107
0.00190599
0.00189268
0.00187314
0.00184903
0.00182177
0.00179254
0.00176232
0.00173193
0.00170209
0.00167343
0.00164651
0.00162188
0.00160006
0.00158157
0.00156692
0.00155658
0.001551
0.00155044
0.00155498
0.00156429
0.00157733
0.0015916
0.00160175
0.00159677
0.00155335
0.00142313
0.00111784
0.000651337
0.000517056
0.0013775
0.00147572
0.000560339
0.000726963
0.00122976
0.00153408
0.00165624
0.00168915
0.00168104
0.00165449
0.00162038
0.00158446
0.00155011
0.00151955
0.00149425
0.00147509
0.00146256
0.00145676
0.00145756
0.00146459
0.00147744
0.0014956
0.00151858
0.00154591
0.00157715
0.00161187
0.00164964
0.00169
0.00173234
0.0017759
0.00181961
0.00186195
0.00190073
0.00193281
0.00195172
0.00195703
0.00195143
0.00193728
0.00191661
0.00189116
0.00186239
0.00183151
0.00179953
0.0017673
0.00173552
0.00170485
0.00167583
0.00164902
0.00162494
0.0016041
0.00158703
0.00157425
0.00156624
0.00156337
0.00156581
0.00157336
0.001585
0.00159822
0.00160773
0.00160251
0.00155924
0.00142937
0.00112413
0.000655501
0.000519682
0.00138479
0.00148767
0.000566749
0.000738756
0.00124653
0.0015506
0.00167197
0.00170425
0.00169585
0.00166943
0.00163595
0.00160118
0.00156845
0.0015398
0.00151662
0.00149972
0.00148952
0.00148606
0.00148915
0.00149843
0.00151342
0.00153364
0.0015586
0.00158784
0.00162093
0.00165746
0.00169702
0.00173913
0.0017832
0.00182846
0.00187381
0.0019177
0.00195785
0.00199103
0.00201052
0.00201589
0.00200992
0.00199505
0.00197337
0.00194669
0.00191652
0.0018841
0.00185046
0.00181647
0.00178286
0.00175027
0.00171927
0.0016904
0.00166417
0.00164111
0.00162173
0.00160655
0.00159605
0.00159062
0.00159045
0.00159537
0.00160448
0.00161556
0.00162349
0.00161734
0.00157377
0.00144407
0.0011387
0.000665334
0.00052507
0.00139465
0.00149716
0.000570162
0.00074429
0.00125465
0.00155869
0.00167957
0.00171142
0.00170276
0.00167634
0.00164317
0.00160907
0.00157747
0.00155044
0.00152926
0.00151465
0.00150688
0.00150592
0.00151147
0.00152314
0.00154044
0.00156287
0.00158996
0.00162125
0.00165635
0.00169486
0.00173635
0.00178038
0.00182635
0.00187346
0.0019206
0.00196615
0.00200776
0.00204207
0.0020621
0.00206744
0.00206096
0.00204518
0.0020223
0.00199418
0.00196237
0.00192816
0.00189262
0.00185662
0.00182092
0.00178615
0.00175289
0.00172167
0.001693
0.00166741
0.00164541
0.00162753
0.0016143
0.00160618
0.00160347
0.00160611
0.00161337
0.00162309
0.00163013
0.00162358
0.00158007
0.0014507
0.00114541
0.000669831
0.000527881
0.00140234
0.00150967
0.000576959
0.000756855
0.00127234
0.00157609
0.00169617
0.00172744
0.00171861
0.0016925
0.00166017
0.0016274
0.00159745
0.00157234
0.00155327
0.00154089
0.00153541
0.00153672
0.00154451
0.00155834
0.00157772
0.00160216
0.00163117
0.00166435
0.00170129
0.0017416
0.00178489
0.00183071
0.00187845
0.00192731
0.00197615
0.00202332
0.00206639
0.00210186
0.00212253
0.00212795
0.0021211
0.00210459
0.00208068
0.0020513
0.00201805
0.00198227
0.00194504
0.00190727
0.00186972
0.00183304
0.0017978
0.00176454
0.00173376
0.00170598
0.00168171
0.0016615
0.00164586
0.00163526
0.00163003
0.00163016
0.00163495
0.00164233
0.00164752
0.00163978
0.00159581
0.00146655
0.00116113
0.000680556
0.000533724
0.00141286
0.00151963
0.000580575
0.000762751
0.00128088
0.00158457
0.00170416
0.00173502
0.00172601
0.00170004
0.00166826
0.00163654
0.00160817
0.00158509
0.00156838
0.00155856
0.00155573
0.00155968
0.00157006
0.00158639
0.00160817
0.00163491
0.00166615
0.00170148
0.00174053
0.00178293
0.00182828
0.00187613
0.00192589
0.00197673
0.00202749
0.00207645
0.00212111
0.00215784
0.00217914
0.00218456
0.00217721
0.00215978
0.00213461
0.00210372
0.00206875
0.00203109
0.00199186
0.00195198
0.00191223
0.00187327
0.00183567
0.00179995
0.00176663
0.00173621
0.00170919
0.00168613
0.00166756
0.00165399
0.00164583
0.0016432
0.00164558
0.00165109
0.00165504
0.00164667
0.00160261
0.00147365
0.00116835
0.000685463
0.000536761
0.00142101
0.00153278
0.000587811
0.000776193
0.00129959
0.00160293
0.00172172
0.00175206
0.00174299
0.0017175
0.00168668
0.0016563
0.00162961
0.00160848
0.00159392
0.00158636
0.00158582
0.00159205
0.00160466
0.00162314
0.001647
0.00167574
0.00170893
0.00174618
0.0017871
0.00183136
0.00187857
0.00192828
0.0019799
0.00203259
0.00208516
0.00213585
0.00218208
0.00222007
0.00224207
0.00224761
0.00223989
0.00222169
0.00219544
0.00216322
0.00212675
0.00208744
0.00204644
0.00200472
0.00196305
0.00192211
0.00188247
0.00184466
0.00180919
0.00177654
0.00174725
0.00172183
0.00170084
0.0016848
0.00167414
0.00166903
0.00166898
0.00167222
0.00167416
0.00166438
0.00161967
0.00149074
0.00118534
0.00069718
0.000543103
0.00143222
0.00154323
0.000591654
0.000782509
0.00130863
0.00161185
0.00173014
0.00176012
0.00175102
0.00172595
0.00169607
0.00166721
0.00164252
0.00162378
0.00161185
0.00160704
0.00160928
0.00161826
0.00163352
0.00165456
0.00168086
0.00171197
0.00174744
0.00178692
0.00183003
0.00187645
0.00192581
0.00197766
0.0020314
0.00208619
0.00214079
0.0021934
0.00224135
0.00228071
0.00230343
0.00230903
0.00230082
0.00228169
0.00225416
0.00222037
0.00218211
0.00214085
0.00209777
0.00205386
0.00200992
0.00196662
0.00192455
0.00188423
0.00184614
0.00181079
0.00177868
0.00175033
0.00172629
0.00170711
0.00169327
0.00168503
0.00168207
0.00168283
0.00168296
0.00167213
0.00162712
0.0014984
0.00119313
0.00070255
0.000546393
0.00144087
0.001557
0.000599301
0.000796776
0.0013283
0.00163117
0.00174868
0.00177822
0.00176914
0.00174455
0.00171564
0.00168818
0.00166527
0.00164857
0.00163888
0.00163642
0.00164101
0.00165232
0.00166985
0.00169308
0.00172151
0.00175467
0.00179215
0.00183359
0.00187867
0.00192704
0.00197835
0.00203216
0.00208788
0.00214464
0.00220119
0.00225566
0.0023053
0.00234606
0.00236956
0.00237531
0.00236672
0.00234679
0.00231811
0.00228292
0.00224306
0.00220004
0.00215509
0.00210922
0.00206326
0.00201788
0.00197367
0.00193116
0.00189084
0.00185319
0.00181871
0.00178793
0.0017614
0.00173968
0.00172327
0.00171248
0.00170706
0.00170555
0.00170374
0.00169144
0.00164565
0.00151688
0.00121155
0.00071542
0.000553311
0.00145283
0.00156793
0.000603337
0.000803429
0.00133774
0.00164055
0.00175766
0.00178702
0.0017782
0.00175443
0.00172691
0.00170136
0.0016808
0.00166676
0.0016599
0.00166032
0.00166778
0.00168187
0.00170209
0.0017279
0.0017588
0.00179435
0.00183416
0.00187789
0.00192521
0.00197582
0.00202936
0.0020854
0.00214334
0.00220231
0.00226101
0.00231754
0.00236903
0.00241128
0.00243561
0.00244148
0.00243243
0.00241155
0.00238156
0.00234475
0.00230305
0.00225801
0.0022109
0.00216278
0.00211446
0.00206666
0.00201996
0.00197489
0.00193191
0.00189152
0.00185418
0.00182042
0.00179078
0.00176584
0.00174611
0.00173197
0.00172329
0.00171881
0.00171457
0.00170063
0.00165408
0.00152528
0.00122003
0.000721347
0.000556903
0.00146206
0.00158253
0.000611616
0.000818961
0.00135869
0.0016608
0.00177691
0.00180566
0.00179679
0.00177356
0.00174716
0.00172323
0.00170467
0.00169291
0.00168848
0.00169138
0.00170131
0.00171783
0.00174038
0.00176845
0.00180154
0.00183922
0.00188112
0.00192691
0.00197628
0.00202895
0.00208456
0.00214269
0.00220274
0.00226382
0.00232462
0.00238317
0.00243651
0.00248029
0.00250551
0.00251156
0.00250214
0.00248042
0.00244922
0.00241092
0.0023675
0.00232058
0.00227148
0.00222127
0.0021708
0.00212079
0.00207183
0.00202444
0.00197911
0.00193629
0.00189647
0.00186016
0.00182789
0.00180025
0.00177778
0.0017609
0.00174958
0.00174267
0.00173639
0.00172105
0.00167391
0.0015453
0.00124021
0.000735718
0.000564564
0.00147492
0.00159415
0.000616091
0.000826504
0.00136938
0.00167157
0.00178745
0.00181628
0.00180799
0.00178592
0.00176123
0.00173949
0.00172348
0.0017145
0.00171296
0.00171875
0.00173155
0.00175084
0.00177606
0.0018067
0.00184228
0.00188238
0.00192664
0.00197476
0.00202644
0.00208142
0.00213934
0.0021998
0.00226218
0.00232558
0.00238867
0.0024494
0.00250474
0.00255017
0.00257632
0.00258256
0.0025727
0.00255003
0.00251748
0.00247751
0.00243218
0.00238317
0.00233184
0.00227929
0.00222641
0.00217391
0.0021224
0.0020724
0.00202438
0.00197879
0.0019361
0.00189681
0.00186143
0.00183054
0.0018047
0.00178437
0.0017696
0.00175941
0.00175024
0.00173269
0.00168423
0.00155515
0.00124987
0.000742441
0.000568553
0.00148476
0.00160906
0.000624402
0.000842039
0.00139003
0.00169144
0.00180634
0.00183467
0.00182653
0.00180525
0.00178198
0.00176217
0.00174847
0.00174203
0.00174313
0.00175159
0.00176701
0.00178883
0.00181651
0.00184951
0.00188738
0.00192971
0.00197616
0.00202645
0.0020803
0.00213745
0.00219758
0.00226026
0.00232489
0.00239057
0.00245591
0.00251884
0.0025762
0.00262332
0.00265047
0.00265696
0.00264673
0.00262319
0.00258935
0.00254779
0.00250063
0.00244961
0.00239615
0.00234138
0.00228619
0.00223134
0.00217742
0.00212497
0.00207445
0.0020263
0.00198098
0.00193896
0.00190078
0.00186699
0.00183817
0.0018148
0.00179702
0.00178399
0.00177238
0.00175307
0.0017038
0.00157492
0.00127011
0.000757243
0.000576457
0.0014981
0.00162183
0.000629844
0.000851561
0.00140317
0.00170455
0.00181918
0.00184764
0.00184024
0.00182035
0.00179903
0.00178162
0.00177064
0.00176708
0.00177112
0.00178251
0.00180078
0.00182536
0.00185569
0.00189127
0.00193163
0.00197639
0.00202525
0.00207791
0.00213414
0.00219367
0.0022562
0.00232131
0.00238839
0.00245652
0.00252429
0.00258957
0.00264909
0.00269802
0.00272623
0.00273298
0.00272234
0.00269785
0.00266262
0.00261933
0.00257018
0.00251699
0.00246121
0.002404
0.00234632
0.00228891
0.00223238
0.00217726
0.00212402
0.00207308
0.00202489
0.00197992
0.00193866
0.00190167
0.00186953
0.00184273
0.00182149
0.00180507
0.00179039
0.00176862
0.00171781
0.00158834
0.00128332
0.000766635
0.000581751
0.0015094
0.00163698
0.000638055
0.000866836
0.00142328
0.00172394
0.00183773
0.00186592
0.00185896
0.00184022
0.00182068
0.00180555
0.00179716
0.00179637
0.00180324
0.00181744
0.00183845
0.00186568
0.00189857
0.00193661
0.00197936
0.00202647
0.00207763
0.00213258
0.0021911
0.00225294
0.00231781
0.00238529
0.00245478
0.00252535
0.00259556
0.0026632
0.00272494
0.00277574
0.00280508
0.00281216
0.00280117
0.00277576
0.00273918
0.00269419
0.0026431
0.00258776
0.0025297
0.00247012
0.00240997
0.00235004
0.00229095
0.00223322
0.00217731
0.00212365
0.00207267
0.00202481
0.00198057
0.00194048
0.00190513
0.00187504
0.00185046
0.00183081
0.00181321
0.00178918
0.0017371
0.0016075
0.00130283
0.000781073
0.0005895
0.00152289
0.0016509
0.000644503
0.000878412
0.00143884
0.00173928
0.00185274
0.00188114
0.00187509
0.00185796
0.00184062
0.0018281
0.0018226
0.0018248
0.00183469
0.00185185
0.00187573
0.00190572
0.00194128
0.0019819
0.00202718
0.00207676
0.00213037
0.00218776
0.00224873
0.00231304
0.0023804
0.00245042
0.00252249
0.00259565
0.00266845
0.00273863
0.00280271
0.0028555
0.00288605
0.00289348
0.00288212
0.00285575
0.00281773
0.00277095
0.00271778
0.00266017
0.00259968
0.00253757
0.00247482
0.00241224
0.00235045
0.00228998
0.00223129
0.0021748
0.00212091
0.00207006
0.00202273
0.00197942
0.00194072
0.00190715
0.00187901
0.00185581
0.00183492
0.00180818
0.00175434
0.00162412
0.0013194
0.000793223
0.000596148
0.00153565
0.00166643
0.000652769
0.000893756
0.00145884
0.00175861
0.00187139
0.00189977
0.0018945
0.0018789
0.0018637
0.00185378
0.00185112
0.00185629
0.00186917
0.00188926
0.00191597
0.00194871
0.0019869
0.00203009
0.00207785
0.00212988
0.0021859
0.00224571
0.00230909
0.00237585
0.00244569
0.00251824
0.00259288
0.00266866
0.00274409
0.00281684
0.00288335
0.00293822
0.00297006
0.00297789
0.0029662
0.00293889
0.00289945
0.00285087
0.00279563
0.00273573
0.0026728
0.00260815
0.00254278
0.00247752
0.00241301
0.00234977
0.00228827
0.00222891
0.00217209
0.00211823
0.00206777
0.00202124
0.00197918
0.00194213
0.00191042
0.00188369
0.00185948
0.00183
0.00177444
0.00164374
0.00133926
0.000808122
0.000604138
0.00154965
0.00168144
0.000660133
0.000907197
0.0014765
0.00177591
0.00188834
0.00191705
0.0019129
0.00189918
0.00188644
0.00187936
0.00187975
0.00188804
0.001904
0.00192711
0.00195673
0.00199226
0.00203317
0.00207898
0.00212931
0.00218387
0.00224241
0.00230474
0.00237066
0.00243998
0.00251244
0.00258765
0.002665
0.00274354
0.00282174
0.00289721
0.00296628
0.00302335
0.00305657
0.00306486
0.00305284
0.00302456
0.00298363
0.00293317
0.00287575
0.00281346
0.00274799
0.00268068
0.00261259
0.00254455
0.00247722
0.00241114
0.00234675
0.00228446
0.00222466
0.00216773
0.00211411
0.00206429
0.0020188
0.00197818
0.00194279
0.00191233
0.00188457
0.00185205
0.00179445
0.001663
0.00135859
0.000822665
0.000611961
0.0015637
0.00169753
0.000668658
0.000923034
0.00149688
0.00179565
0.00190756
0.00193651
0.00193349
0.00192168
0.00191144
0.00190724
0.00191071
0.00192215
0.00194122
0.00196734
0.00199989
0.00203824
0.00208186
0.00213031
0.00218323
0.00224034
0.00230141
0.00236626
0.00243474
0.00250664
0.00258172
0.00265962
0.00273972
0.00282106
0.0029021
0.00298038
0.0030521
0.00311148
0.00314616
0.00315497
0.00314265
0.00311341
0.003071
0.00301864
0.002959
0.00289427
0.00282621
0.00275619
0.0026853
0.00261442
0.00254421
0.00247521
0.00240786
0.00234257
0.00227971
0.00221966
0.00216282
0.00210966
0.00206069
0.00201645
0.00197731
0.00194305
0.00191163
0.00187595
0.00181618
0.00168393
0.00137968
0.000838772
0.00062055
0.00157853
0.00171356
0.000676861
0.000938178
0.00151638
0.00181466
0.00192626
0.00195572
0.0019541
0.00194447
0.00193697
0.00193584
0.00194253
0.0019572
0.00197945
0.00200865
0.00204416
0.00208536
0.00213175
0.00218289
0.00223845
0.00229817
0.00236184
0.00242931
0.00250042
0.002575
0.00265283
0.00273352
0.00281649
0.00290077
0.00298477
0.003066
0.00314052
0.00320234
0.0032386
0.00324797
0.00323538
0.00320516
0.00316121
0.00310688
0.00304495
0.0029777
0.00290694
0.00283411
0.00276035
0.00268654
0.00261337
0.00254138
0.00247102
0.00240268
0.00233672
0.00227349
0.00221338
0.00215684
0.00210436
0.00205643
0.00201346
0.00197529
0.00194004
0.00190097
0.0018388
0.00170556
0.00140142
0.000855512
0.000629452
0.00159379
0.00173037
0.000685834
0.000954902
0.00153758
0.00183521
0.00194645
0.00197644
0.00197631
0.00196897
0.00196431
0.00196633
0.0019763
0.00199426
0.00201972
0.00205203
0.00209053
0.00213463
0.00218381
0.00223768
0.00229592
0.00235829
0.00242461
0.00249473
0.00256851
0.00264582
0.00272642
0.00280997
0.00289587
0.00298315
0.00307021
0.00315449
0.00323193
0.00329631
0.00333424
0.00334426
0.00333143
0.00330024
0.00325472
0.00319838
0.0031341
0.00306425
0.00299072
0.00291501
0.00283829
0.00276146
0.00268524
0.00261017
0.00253671
0.00246523
0.00239608
0.0023296
0.00226616
0.00220618
0.00215011
0.00209844
0.00205157
0.00200939
0.00197018
0.00192756
0.00186279
0.00172843
0.00142442
0.00087345
0.000638941
0.00160967
0.0017474
0.000694845
0.000971687
0.00155875
0.00185581
0.00196683
0.00199757
0.00199918
0.00199434
0.00199271
0.00199803
0.00201138
0.0020327
0.00206142
0.00209688
0.00213841
0.00218543
0.00223745
0.00229409
0.00235506
0.00242013
0.00248915
0.00256199
0.00263853
0.00271865
0.00280213
0.00288863
0.00297757
0.00306798
0.00315823
0.00324569
0.00332621
0.00339331
0.00343304
0.00344377
0.00343072
0.00339854
0.00335143
0.00329301
0.00322631
0.00315378
0.00307739
0.00299871
0.00291893
0.002839
0.00275965
0.00268143
0.00260479
0.00253011
0.00245772
0.00238795
0.00232113
0.00225765
0.00219794
0.00214248
0.00209165
0.00204537
0.00200206
0.0019557
0.00188812
0.00175249
0.00144859
0.000892521
0.000648984
0.00162617
0.00176506
0.000704421
0.000989619
0.0015811
0.00187751
0.00198833
0.00201991
0.0020234
0.00202122
0.00202274
0.00203145
0.00204827
0.002073
0.00210503
0.00214368
0.00218828
0.00223827
0.00229317
0.00235263
0.00241638
0.00248421
0.00255599
0.0026316
0.00271096
0.00279394
0.00288035
0.00296988
0.00306194
0.00315557
0.00324912
0.0033399
0.00342362
0.00349359
0.00353523
0.00354676
0.00353353
0.00350037
0.00345163
0.00339109
0.00332189
0.0032466
0.00316726
0.00308549
0.00300256
0.00291943
0.00283684
0.00275537
0.00267547
0.00259749
0.00252178
0.00244862
0.00237834
0.0023113
0.0022479
0.00218858
0.0021337
0.00208322
0.00203569
0.00198539
0.00191479
0.0017777
0.00147387
0.000912687
0.000659563
0.00164326
0.0017831
0.000714246
0.00100805
0.00160391
0.00189969
0.00201044
0.00204306
0.00204863
0.00204932
0.00205416
0.00206639
0.00208675
0.00211495
0.00215034
0.00219221
0.00223992
0.0022929
0.00235073
0.00241305
0.00247963
0.00255027
0.00262487
0.00270332
0.00278557
0.00287149
0.00296093
0.00305357
0.00314887
0.00324583
0.00334281
0.00343706
0.00352416
0.00359716
0.00364086
0.00365327
0.0036399
0.00360576
0.00355535
0.00349262
0.00342085
0.00334271
0.00326032
0.00317539
0.00308921
0.00300278
0.00291687
0.00283206
0.0027488
0.00266746
0.00258835
0.00251175
0.00243795
0.00236729
0.00230014
0.0022369
0.00217792
0.00212316
0.00207129
0.00201689
0.00194305
0.00180433
0.00150055
0.00093427
0.000670835
0.00166106
0.0018017
0.000724555
0.00102746
0.00162767
0.00192278
0.00203352
0.00206733
0.00207518
0.0020789
0.0020872
0.00210305
0.00212702
0.00215875
0.00219754
0.00224269
0.00229355
0.00234959
0.00241039
0.00247563
0.00254509
0.00261861
0.00269608
0.00277745
0.00286264
0.00295158
0.00304412
0.00313996
0.00323858
0.00333899
0.00343953
0.0035374
0.00362803
0.00370423
0.00375013
0.00376351
0.00375005
0.00371492
0.00366282
0.00359785
0.00352342
0.00344233
0.0033568
0.00326858
0.00317903
0.00308919
0.00299985
0.00291159
0.00282489
0.00274008
0.00265748
0.00257734
0.00249995
0.0024256
0.00235463
0.0022874
0.00222424
0.00216512
0.00210879
0.00205011
0.00197281
0.00183226
0.00152847
0.000957142
0.000682738
0.0016795
0.00182079
0.000735246
0.00104764
0.00165216
0.00194661
0.00205747
0.00209266
0.002103
0.00210994
0.00212183
0.00214141
0.00216907
0.00220438
0.00224662
0.00229508
0.00234914
0.00240827
0.00247209
0.0025403
0.0026127
0.00268915
0.00276957
0.00285391
0.00294212
0.00303416
0.00312988
0.00322902
0.00333106
0.00343504
0.00353928
0.00364093
0.00373528
0.00381487
0.00386313
0.00387758
0.00386408
0.00382798
0.00377414
0.00370686
0.0036297
0.00354556
0.00345678
0.00336517
0.00327215
0.00317879
0.00308591
0.00299411
0.00290386
0.0028155
0.00272932
0.00264558
0.00256451
0.0024864
0.00241155
0.00234028
0.00227288
0.00220932
0.00214841
0.0020853
0.00200434
0.00186178
0.00155796
0.000981617
0.000695425
0.00169871
0.00184044
0.000746412
0.00106878
0.00167755
0.00197132
0.00208241
0.00211917
0.00213219
0.00214252
0.00215815
0.00218155
0.00221298
0.00225193
0.00229767
0.00234949
0.00240679
0.00246907
0.00253597
0.00260721
0.00268261
0.00276206
0.00284549
0.00293287
0.00302419
0.00311939
0.00321838
0.0033209
0.00342647
0.00353415
0.00364223
0.00374782
0.00384607
0.00392926
0.00398005
0.00399568
0.00398218
0.00394511
0.00388951
0.00381985
0.00373987
0.00365258
0.00356043
0.00346531
0.00336869
0.0032717
0.00317516
0.0030797
0.00298578
0.00289376
0.00280391
0.00271646
0.00263164
0.00254969
0.00247088
0.00239549
0.00232377
0.00225568
0.00219009
0.00212239
0.00203753
0.00189273
0.00158878
0.00100752
0.000708811
0.0017186
0.00186063
0.000758044
0.00109086
0.00170383
0.00199692
0.00210838
0.0021469
0.00216282
0.00217673
0.00219623
0.00222354
0.00225881
0.00230145
0.00235074
0.00240598
0.00246656
0.00253204
0.00260207
0.00267639
0.00275486
0.00283737
0.00292388
0.00301437
0.00310886
0.00320731
0.00330965
0.00341566
0.00352487
0.00363636
0.00374844
0.00385814
0.00396051
0.0040475
0.004101
0.00411794
0.00410451
0.00406648
0.00400908
0.00393698
0.00385408
0.00376354
0.0036679
0.00356915
0.00346882
0.00336806
0.00326775
0.00316852
0.00307083
0.00297505
0.00288142
0.00279018
0.00270152
0.00261565
0.0025328
0.00245322
0.00237712
0.00230442
0.00223404
0.0021616
0.00207265
0.00192542
0.00162129
0.0010352
0.000723076
0.00173933
0.0018814
0.000770186
0.00111397
0.00173104
0.00202347
0.00213542
0.00217592
0.00219495
0.00221261
0.0022361
0.00226742
0.00230659
0.002353
0.00240589
0.00246458
0.00252852
0.00259726
0.00267047
0.00274795
0.00282955
0.00291519
0.00300485
0.00309853
0.00319626
0.00329804
0.00340382
0.00351341
0.00362637
0.00374181
0.00385804
0.00397205
0.00407873
0.00416976
0.00422617
0.00424455
0.00423126
0.00419227
0.00413303
0.00405843
0.00397251
0.0038786
0.00377936
0.00367684
0.00357266
0.00346801
0.00336378
0.00326065
0.00315907
0.00305941
0.0029619
0.00286676
0.00277416
0.00268428
0.00259732
0.00251347
0.0024329
0.00235552
0.00228025
0.00220291
0.00210966
0.00195977
0.00165535
0.00106457
0.000738174
0.00176081
0.00190276
0.000782854
0.00113814
0.00175923
0.00205102
0.00216362
0.00220632
0.00222867
0.00225025
0.00227787
0.00231329
0.00235643
0.00240665
0.00246319
0.0025254
0.00259274
0.00266479
0.00274126
0.00282195
0.00290675
0.00299559
0.00308847
0.00318542
0.00328647
0.00339167
0.00350097
0.00361423
0.00373106
0.00385059
0.00397113
0.00408964
0.00420087
0.00429618
0.00435571
0.00437567
0.00436259
0.00432268
0.00426156
0.00418437
0.00409535
0.00399795
0.00389496
0.00378855
0.00368038
0.0035717
0.00346343
0.00335627
0.00325068
0.00314701
0.00304551
0.00294637
0.00284973
0.00275575
0.00266458
0.00257639
0.00249129
0.00240913
0.00232887
0.00224651
0.00214875
0.00199599
0.0016912
0.0010959
0.000754247
0.00178316
0.00192475
0.000796087
0.00116344
0.00178845
0.00207961
0.00219302
0.00223816
0.00226404
0.0022897
0.00232156
0.00236117
0.00240836
0.00246245
0.0025227
0.00258849
0.00265929
0.00273472
0.00281451
0.00289849
0.00298656
0.00307867
0.00317485
0.00327514
0.0033796
0.00348829
0.00360121
0.00371825
0.00383906
0.00396281
0.00408783
0.00421105
0.00432707
0.00442693
0.00448981
0.00451151
0.00449872
0.00445789
0.00439487
0.00431502
0.00422277
0.00412176
0.0040149
0.00390444
0.00379213
0.00367927
0.00356682
0.00345548
0.00334574
0.00323794
0.00313233
0.00302907
0.00292829
0.0028301
0.00273464
0.00264201
0.00255228
0.00246526
0.00237991
0.00229237
0.0021899
0.00203401
0.00172869
0.00112905
0.000771233
0.0018063
0.00194735
0.000809903
0.0011899
0.00181872
0.0021093
0.00222372
0.00227151
0.00230115
0.00233106
0.00236728
0.00241116
0.00246246
0.00252048
0.00258451
0.00265393
0.00272826
0.00280713
0.00289032
0.00297765
0.00306907
0.00316453
0.00326409
0.0033678
0.00347574
0.003588
0.00370462
0.00382554
0.00395045
0.00407857
0.00420825
0.0043364
0.00445746
0.00456215
0.00462863
0.00465224
0.00463984
0.00459811
0.00453315
0.00445056
0.00435499
0.00425023
0.00413935
0.00402469
0.00390809
0.0037909
0.00367412
0.00355846
0.00344443
0.00333237
0.00322252
0.00311502
0.00300998
0.0029075
0.00280764
0.00271048
0.00261604
0.00252407
0.00243354
0.0023407
0.00223332
0.00207406
0.00176809
0.00116433
0.000789294
0.00183036
0.00197062
0.000824351
0.00121763
0.0018501
0.00214016
0.00225576
0.00230645
0.00234006
0.00237438
0.00241507
0.00246331
0.00251879
0.00258081
0.00264868
0.0027218
0.00279972
0.00288211
0.00296876
0.00305953
0.00315437
0.00325327
0.00335628
0.00346349
0.00357499
0.00369092
0.00381134
0.00393624
0.00406536
0.00419799
0.00433252
0.00446582
0.0045922
0.00470202
0.00477237
0.00479808
0.00478616
0.00474357
0.00467663
0.00459122
0.0044922
0.00438356
0.0042685
0.00414949
0.00402843
0.00390675
0.00378547
0.00366534
0.00354687
0.00343041
0.00331618
0.00320431
0.0030949
0.00298799
0.00288363
0.00278185
0.0026826
0.0025856
0.00248977
0.00239149
0.00227901
0.00211614
0.00180933
0.00120169
0.000808414
0.00185527
0.00199453
0.00083944
0.00124662
0.00188263
0.00217222
0.00228923
0.00234307
0.00238085
0.00241974
0.00246502
0.0025177
0.00257744
0.00264352
0.00271529
0.00279218
0.00287376
0.00295975
0.00304994
0.00314423
0.00324257
0.00334498
0.00345153
0.00356232
0.00367747
0.00379714
0.00392145
0.00405043
0.0041839
0.00432119
0.00446076
0.00459944
0.00473143
0.00484671
0.00492123
0.00494923
0.00493791
0.00489449
0.00482554
0.00473722
0.00463463
0.00452197
0.00440257
0.00427903
0.00415335
0.004027
0.00390105
0.00377629
0.00365323
0.00353221
0.00341346
0.0032971
0.00318318
0.00307174
0.00296277
0.00285626
0.0027521
0.00264996
0.00254874
0.0024449
0.00232713
0.00216041
0.0018526
0.00124135
0.000828718
0.00188113
0.00201915
0.000855232
0.001277
0.00191637
0.00220557
0.0023242
0.00238144
0.0024236
0.00246721
0.00251718
0.0025744
0.00263846
0.00270868
0.00278442
0.00286515
0.00295048
0.00304014
0.00313395
0.00323184
0.00333377
0.00343979
0.00354996
0.00366441
0.0037833
0.00390679
0.00403508
0.00416824
0.00430617
0.00444828
0.00459308
0.00473741
0.00487532
0.00499641
0.0050754
0.00510592
0.00509532
0.00505111
0.00498012
0.0048888
0.00478251
0.00466567
0.00454176
0.00441352
0.00428302
0.00415182
0.00402104
0.00389147
0.00376364
0.00363792
0.0035145
0.00339349
0.00327493
0.00315882
0.00304512
0.00293376
0.00282459
0.00271721
0.00261048
0.00250093
0.00237767
0.00220683
0.00189779
0.00128317
0.000850152
0.00190785
0.00204445
0.000871729
0.00130877
0.00195134
0.00224026
0.00236074
0.00242164
0.0024684
0.00251687
0.00257165
0.00263348
0.00270194
0.00277637
0.00285616
0.00294081
0.00302996
0.00312338
0.00322091
0.00332249
0.0034281
0.0035378
0.00365168
0.00376988
0.00389258
0.00401999
0.00415234
0.00428978
0.00443229
0.00457938
0.00472962
0.00487987
0.00502402
0.00515129
0.00523511
0.00526839
0.00525864
0.00521368
0.00514061
0.0050462
0.00493609
0.00481489
0.0046863
0.00455316
0.00441767
0.00428143
0.00414562
0.00401106
0.00387831
0.0037477
0.00361945
0.00349365
0.00337031
0.0032494
0.00313084
0.00301452
0.00290023
0.0027875
0.00267516
0.00255978