/*--------------------------------*- C++ -*----------------------------------*\
| =========                 |                                                 |
| \\      /  F ield         | OpenFOAM: The Open Source CFD Toolbox           |
|  \\    /   O peration     | Version:  2412                                  |
|   \\  /    A nd           | Website:  www.openfoam.com                      |
|    \\/     M anipulation  |                                                 |
\*---------------------------------------------------------------------------*/
FoamFile
{
    version     2.0;
    format      ascii;
    arch        "LSB;label=32;scalar=64";
    class       volScalarField;
    location    "710";
    object      nut;
}
// * * * * * * * * * * * * * * * * * * * * * * * * * * * * * * * * * * * * * //

dimensions      [0 2 -1 0 0 0 0];

internalField   nonuniform List<scalar> 
32240
(
2.46096e-06
1.47603e-06
9.33963e-06
5.74157e-05
0.000137449
0.000239731
0.000361742
0.000500374
0.000654295
0.000824014
0.00101193
0.00122217
0.00146047
0.00173408
0.00205149
0.002422
0.00285509
0.0033595
0.00394224
0.00460758
0.00535608
0.00618425
0.00708361
0.00804107
0.00903896
0.0100554
0.0110648
0.0120378
0.012942
0.0137413
0.0143965
0.0148655
0.0150897
0.0149954
0.0146459
0.0141059
0.013417
0.0126164
0.0117375
0.0108095
0.00985815
0.00890585
0.0079717
0.00707171
0.00621879
0.00542272
0.00469022
0.00402508
0.00342836
0.00289875
0.00243298
0.00202631
0.00167309
0.00136722
0.00110261
0.00087354
0.000675045
0.000503193
0.000355447
0.000230754
0.000129669
5.226e-05
8.09868e-06
1.36818e-06
2.36119e-06
2.48175e-06
1.49566e-06
9.57367e-06
5.83545e-05
0.000138943
0.000241829
0.000364606
0.000504433
0.00066035
0.000833287
0.00102609
0.00124334
0.00149123
0.00177737
0.00211049
0.00249988
0.00295466
0.00348295
0.00409094
0.00478192
0.00555565
0.00640766
0.00732893
0.00830602
0.00932137
0.0103537
0.0113786
0.0123688
0.013294
0.0141199
0.0148054
0.0152979
0.015533
0.0154381
0.015077
0.0145118
0.0137971
0.0129744
0.0120768
0.0111321
0.0101645
0.00919509
0.00824241
0.00732223
0.00644749
0.0056283
0.00487183
0.0041824
0.00356171
0.00300906
0.00252179
0.00209569
0.00172548
0.00140527
0.00112902
0.000890947
0.000685893
0.000509607
0.00035914
0.00023292
0.000131005
5.30452e-05
8.27844e-06
1.38438e-06
2.37367e-06
2.489e-06
1.50695e-06
9.70566e-06
5.88455e-05
0.000139648
0.000242782
0.000365896
0.000506283
0.000663135
0.000837557
0.00103254
0.00125285
0.00150487
0.00179635
0.00213618
0.00253358
0.00299757
0.00353586
0.00415435
0.004856
0.00564027
0.0065023
0.00743282
0.00841817
0.00944059
0.0104786
0.0115073
0.0124989
0.0134223
0.0142426
0.0149201
0.0154075
0.0156419
0.0155485
0.0151913
0.014635
0.0139279
0.0131093
0.0122122
0.0112651
0.0102929
0.0093172
0.00835702
0.00742836
0.00654444
0.00571554
0.00494905
0.00424952
0.00361884
0.00305651
0.00256013
0.00212578
0.00174838
0.00142208
0.0011408
0.000898788
0.000690812
0.000512516
0.000360778
0.000233829
0.00013152
5.33584e-05
8.35041e-06
1.39045e-06
2.38186e-06
2.50294e-06
1.52152e-06
9.88277e-06
5.95669e-05
0.000140858
0.000244626
0.000368618
0.000510331
0.00066923
0.000846761
0.00104639
0.00127328
0.00153408
0.00183668
0.00218976
0.00260235
0.00308315
0.00363978
0.00427756
0.0049987
0.005802
0.00668186
0.00762855
0.00862811
0.00966271
0.0107109
0.0117483
0.0127471
0.013677
0.0145035
0.0151868
0.015679
0.0159169
0.0158253
0.015468
0.0149094
0.0141985
0.0133748
0.0124713
0.0115164
0.0105346
0.00954769
0.00857446
0.00763106
0.00673088
0.00588452
0.00509976
0.00438165
0.00373257
0.00315254
0.00263944
0.00218939
0.00179757
0.00145855
0.00116665
0.000916184
0.000701879
0.000519184
0.000364657
0.000236102
0.000132889
5.41376e-05
8.52514e-06
1.40565e-06
2.39209e-06
2.51342e-06
1.53005e-06
9.98326e-06
5.99212e-05
0.00014135
0.000245297
0.000369601
0.000511914
0.000671869
0.000851091
0.00105321
0.00128356
0.00154904
0.00185787
0.00221896
0.00264137
0.00313343
0.00370213
0.00435233
0.00508596
0.00590135
0.00679269
0.00775003
0.00875933
0.0098027
0.0108588
0.0119031
0.0129083
0.0138439
0.0146755
0.0153633
0.0158594
0.0161001
0.0160094
0.0156514
0.0150906
0.0143765
0.0135483
0.0126393
0.0116778
0.0106885
0.00969303
0.0087104
0.0077568
0.00684572
0.00598789
0.00519126
0.00446103
0.00379984
0.00320795
0.00268358
0.00222347
0.00182311
0.0014771
0.00117959
0.000924711
0.000707112
0.00052214
0.000366192
0.00023686
0.000133277
5.43764e-05
8.58375e-06
1.41067e-06
2.40052e-06
2.52742e-06
1.54995e-06
1.02246e-05
6.08757e-05
0.000142921
0.000247615
0.000372898
0.000516695
0.000679025
0.000861954
0.00106947
0.00130722
0.00158225
0.00190255
0.00227678
0.00271375
0.00322174
0.00380753
0.00447541
0.00522679
0.00605926
0.00696652
0.00793822
0.00896009
0.0100142
0.0110792
0.0121309
0.0131422
0.0140828
0.0149187
0.0156103
0.0161096
0.0163531
0.0162644
0.015907
0.0153457
0.0146296
0.013798
0.0128841
0.0119161
0.0109186
0.00991332
0.00891913
0.00795238
0.00702674
0.00615321
0.00534008
0.00459297
0.0039149
0.00330657
0.00276654
0.00229159
0.00187719
0.00151822
0.0012093
0.000945049
0.000720234
0.000530114
0.000370816
0.000239512
0.000134831
5.52491e-05
8.78199e-06
1.42774e-06
2.41181e-06
2.53823e-06
1.5569e-06
1.03081e-05
6.11585e-05
0.000143311
0.00024821
0.000373927
0.000518533
0.000682166
0.000867052
0.0010774
0.00131912
0.00159964
0.00192731
0.00231097
0.00275922
0.00327978
0.00387892
0.00456049
0.00532547
0.00617108
0.00709074
0.00807391
0.00910622
0.0101697
0.0112432
0.0123026
0.0133207
0.0142676
0.0151093
0.0158061
0.0163097
0.0165565
0.0164692
0.0161113
0.0155479
0.0148283
0.0139921
0.0130723
0.0120972
0.0110916
0.0100771
0.00907281
0.00809499
0.00715745
0.00627131
0.00544504
0.00468446
0.00399287
0.00337125
0.00281849
0.00233179
0.00190721
0.00153987
0.00122434
0.000955019
0.000726401
0.000533616
0.000372635
0.000240405
0.000135283
5.55213e-05
8.84955e-06
1.43346e-06
2.42056e-06
2.55279e-06
1.57882e-06
1.0575e-05
6.21886e-05
0.000145005
0.00025072
0.000377543
0.000523877
0.000690313
0.000879482
0.00109592
0.00134572
0.00163609
0.00197521
0.0023717
0.0028341
0.00337009
0.00398547
0.00468368
0.00546507
0.00632639
0.00726062
0.00825693
0.00930077
0.0103742
0.011456
0.0125223
0.0135464
0.0144983
0.0153444
0.0160451
0.0165522
0.016802
0.0167165
0.0163592
0.0157952
0.0150736
0.014234
0.0133094
0.0123282
0.0113148
0.0102911
0.00927591
0.00828585
0.00733479
0.00643408
0.00559247
0.00481611
0.00410864
0.00347138
0.00290355
0.00240264
0.00196464
0.00158469
0.00125762
0.000978218
0.000741546
0.000542853
0.000377946
0.000243383
0.000136978
5.64604e-05
9.06589e-06
1.45189e-06
2.43258e-06
2.56413e-06
1.58629e-06
1.06659e-05
6.24918e-05
0.000145433
0.000251402
0.000378755
0.000526054
0.000694002
0.000885459
0.00110525
0.00135986
0.00165692
0.00200483
0.00241216
0.00288698
0.0034365
0.00406607
0.00477875
0.00557438
0.00644937
0.00739641
0.00840451
0.00945904
0.010542
0.0116325
0.0127066
0.0137377
0.014696
0.015548
0.0162541
0.0167657
0.0170191
0.0169353
0.0165778
0.0160121
0.0152873
0.0144431
0.0135127
0.0125245
0.0115029
0.0104699
0.00944434
0.00844285
0.00747941
0.00656551
0.00571006
0.00491944
0.00419756
0.00354605
0.00296444
0.00245052
0.00200074
0.00161077
0.00127563
0.000990064
0.000748887
0.000547033
0.000380105
0.00024442
0.000137487
5.67573e-05
9.14054e-06
1.45815e-06
2.44175e-06
2.57931e-06
1.60975e-06
1.09537e-05
6.35796e-05
0.000147225
0.000254094
0.000382719
0.000532046
0.00070327
0.000899601
0.00112605
0.00138897
0.00169593
0.00205514
0.00247509
0.00296392
0.00352848
0.00417372
0.00490223
0.00571336
0.0066031
0.00756382
0.00858426
0.00964969
0.0107422
0.0118407
0.0129218
0.0139589
0.0149225
0.0157791
0.0164896
0.017005
0.0172615
0.0171798
0.0168229
0.0162563
0.0155294
0.0146818
0.0137466
0.0127521
0.0117229
0.0106807
0.00964468
0.00863141
0.00765503
0.00672721
0.0058571
0.00505136
0.00431421
0.00364755
0.00305125
0.00252336
0.00206056
0.00165838
0.00131189
0.00101613
0.000766234
0.00055771
0.000386226
0.000247793
0.000139357
5.77809e-05
9.38034e-06
1.47838e-06
2.45453e-06
2.59115e-06
1.61775e-06
1.10519e-05
6.39004e-05
0.000147688
0.000254862
0.000384126
0.0005346
0.000707629
0.000906749
0.00113736
0.00140626
0.00172125
0.00209058
0.00252244
0.00302452
0.00360327
0.0042633
0.00500664
0.00583228
0.00673584
0.00770944
0.00874166
0.00981774
0.0109197
0.0120269
0.0131156
0.0141597
0.0151297
0.0159923
0.0167082
0.0172283
0.0174886
0.0174088
0.0170521
0.0164842
0.0157543
0.0149024
0.0139616
0.0129602
0.011923
0.0108716
0.00982524
0.00880048
0.00781158
0.00687033
0.00598607
0.00516566
0.00441359
0.00373208
0.00312126
0.00257952
0.00210382
0.00169013
0.00133401
0.00103063
0.000775145
0.000562771
0.000388829
0.000249022
0.000139942
5.81102e-05
9.46419e-06
1.48532e-06
2.4642e-06
2.60704e-06
1.64297e-06
1.13639e-05
6.5054e-05
0.000149593
0.000257768
0.000388502
0.000541349
0.000718114
0.000922527
0.00116002
0.00143736
0.00176223
0.00214283
0.00258743
0.00310347
0.003697
0.0043723
0.00513091
0.0059714
0.00688906
0.00787572
0.00891978
0.0100064
0.0111177
0.0122329
0.0133287
0.014379
0.0153546
0.0162223
0.0169429
0.0174671
0.017731
0.0176535
0.0172974
0.0167286
0.0159965
0.0151409
0.0141952
0.0131874
0.0121425
0.011082
0.0100253
0.00898895
0.00798739
0.00703256
0.006134
0.00529882
0.00453177
0.00383536
0.00320999
0.00265433
0.00216556
0.00173984
0.00137257
0.00105902
0.000794647
0.000575008
0.000395868
0.000252849
0.000142013
5.92292e-05
9.73095e-06
1.50759e-06
2.47778e-06
2.6194e-06
1.65163e-06
1.14712e-05
6.53975e-05
0.000150098
0.000258639
0.000390146
0.000544398
0.000723447
0.000931422
0.00117415
0.0014587
0.00179284
0.00218458
0.00264183
0.00317169
0.00377988
0.00447019
0.00524375
0.00609874
0.00703012
0.0080295
0.00908516
0.0101822
0.0113029
0.0124265
0.0135298
0.014587
0.015569
0.0164426
0.0171688
0.0176979
0.0179658
0.0178905
0.0175349
0.016965
0.0162303
0.0153707
0.0144195
0.0134052
0.0123524
0.0112829
0.0102159
0.00916812
0.00815408
0.00718581
0.00627302
0.00542302
0.00464082
0.0039292
0.00328887
0.00271877
0.00221639
0.00177815
0.00139986
0.00107724
0.000805872
0.000581328
0.000399073
0.000254331
0.000142693
5.95964e-05
9.82545e-06
1.51532e-06
2.48802e-06
2.63596e-06
1.67849e-06
1.18062e-05
6.66109e-05
0.00015212
0.00026179
0.000394993
0.000551918
0.00073497
0.000948453
0.00119824
0.00149133
0.0018355
0.00223883
0.002709
0.00325283
0.00387573
0.00458102
0.00536945
0.00623885
0.00718386
0.00819587
0.00926303
0.0103704
0.0115002
0.0126319
0.0137425
0.0148062
0.0157941
0.0166732
0.0174045
0.0179381
0.0182099
0.0181371
0.0177823
0.0172116
0.0164745
0.0156112
0.014655
0.0136342
0.0125736
0.011495
0.0104176
0.00935834
0.00833175
0.00735005
0.00642312
0.0055585
0.00476143
0.00403495
0.00338005
0.00279591
0.00228026
0.00182971
0.00144024
0.00110745
0.000827076
0.000595042
0.000407125
0.000258692
0.000145004
6.08273e-05
1.01245e-05
1.54001e-06
2.50247e-06
2.64885e-06
1.6876e-06
1.19196e-05
6.69678e-05
0.000152673
0.000262809
0.00039701
0.000555781
0.000741853
0.000959868
0.001216
0.00151739
0.00187176
0.00228693
0.00277031
0.00332833
0.00396609
0.00468643
0.00548972
0.00637342
0.00733191
0.00835636
0.00943484
0.0105524
0.0116913
0.0128313
0.0139493
0.0150198
0.0160141
0.0168992
0.0176361
0.0181748
0.0184509
0.0183808
0.0180267
0.0174551
0.0167157
0.0158486
0.0148873
0.01386
0.0127917
0.0117042
0.0106167
0.00954611
0.00850715
0.00751209
0.00657099
0.00569156
0.00487928
0.00413744
0.00346731
0.00286837
0.0023386
0.00187489
0.00147347
0.00113032
0.000841572
0.000603324
0.000411319
0.000260577
0.000145811
6.12396e-05
1.02322e-05
1.54874e-06
2.51335e-06
2.66635e-06
1.71717e-06
1.22918e-05
6.82736e-05
0.000154815
0.000266122
0.000402079
0.00056358
0.000753711
0.00097737
0.00124081
0.0015512
0.00191618
0.00234337
0.00283995
0.0034121
0.00406449
0.00479961
0.00561749
0.00651527
0.00748704
0.0085238
0.00961351
0.0107412
0.0118893
0.0130373
0.0141627
0.01524
0.0162405
0.0171314
0.0178737
0.0184174
0.0186978
0.0186304
0.0182773
0.0177051
0.0169634
0.0160926
0.0151261
0.0140923
0.0130161
0.0119194
0.0108215
0.00973949
0.008688
0.00767956
0.00672437
0.00583034
0.00500319
0.00424643
0.00356159
0.00294838
0.00240501
0.00192857
0.00151546
0.00116184
0.000863885
0.000617915
0.000420034
0.000265409
0.000148416
6.26237e-05
1.05752e-05
1.57668e-06
2.52885e-06
2.68002e-06
1.72794e-06
1.24278e-05
6.8714e-05
0.000155559
0.000267557
0.000404926
0.000568941
0.000763009
0.000992256
0.00126307
0.00158262
0.00195842
0.00239792
0.00290797
0.00349451
0.00416173
0.00491177
0.00574427
0.00665605
0.00764095
0.00868981
0.00979052
0.0109281
0.0120851
0.0132412
0.014374
0.0154581
0.016465
0.017362
0.0181101
0.0186591
0.0189442
0.0188797
0.0185278
0.017955
0.0172112
0.0163368
0.0153653
0.0143252
0.0132415
0.0121359
0.011028
0.00993477
0.00887102
0.00784933
0.00688005
0.00597129
0.00512895
0.00435681
0.00365665
0.00302845
0.00247067
0.00198064
0.00155498
0.00119012
0.000882596
0.000629074
0.000425854
0.000268017
0.00014948
6.31236e-05
1.07033e-05
1.58691e-06
2.54045e-06
2.6978e-06
1.75731e-06
1.27996e-05
6.99737e-05
0.000157624
0.000270812
0.00041005
0.00057702
0.000775472
0.00101076
0.00128935
0.00161837
0.0020052
0.00245706
0.00298056
0.00358129
0.0042631
0.00502778
0.00587464
0.0068002
0.00779809
0.00885899
0.00997073
0.0111184
0.0122843
0.0134487
0.0145889
0.0156799
0.0166933
0.0175964
0.0183503
0.0189047
0.0191944
0.0191331
0.0187824
0.0182091
0.0174632
0.0165851
0.0156085
0.0145619
0.0134702
0.0123555
0.0112372
0.0101324
0.00905613
0.00802104
0.00703766
0.00611427
0.005257
0.00446982
0.00375477
0.00311203
0.00254029
0.00203707
0.00159917
0.00122318
0.000905867
0.000644217
0.000434847
0.000272945
0.000152082
6.45122e-05
1.1061e-05
1.61572e-06
2.55645e-06
2.71281e-06
1.77233e-06
1.29914e-05
7.06008e-05
0.000158703
0.000272822
0.000413847
0.000583869
0.000786953
0.00102862
0.00131539
0.0016543
0.00205257
0.00251718
0.00305449
0.0036697
0.00436631
0.00514575
0.00600697
0.00694622
0.0079569
0.00902957
0.010152
0.0113093
0.012484
0.0136562
0.0148037
0.0159016
0.0169215
0.0178309
0.0185907
0.0191508
0.0194455
0.0193876
0.0190383
0.0184649
0.0177171
0.0168356
0.0158541
0.0148013
0.0137021
0.0125787
0.0114504
0.0103345
0.00924601
0.00819774
0.00720034
0.00626227
0.00538983
0.00458726
0.00385682
0.00319895
0.00261259
0.00209547
0.0016446
0.00125677
0.000929028
0.000658706
0.000442828
0.00027677
0.000153763
6.53072e-05
1.12641e-05
1.63177e-06
2.56981e-06
2.73078e-06
1.80082e-06
1.33548e-05
7.1797e-05
0.000160688
0.00027607
0.000419182
0.00059254
0.000800527
0.00104883
0.00134397
0.00169289
0.00210263
0.0025799
0.00313084
0.00376027
0.00447137
0.00526525
0.00614055
0.00709326
0.00811661
0.00920103
0.0103342
0.0115013
0.012685
0.0138654
0.0150205
0.0161253
0.0171519
0.0180679
0.0188337
0.0193996
0.0196995
0.0196451
0.0192974
0.0187237
0.017974
0.017089
0.0161024
0.0150431
0.013936
0.0128033
0.0116646
0.0105372
0.00943623
0.00837459
0.00736309
0.00641038
0.00552297
0.00470528
0.00395979
0.00328717
0.00268655
0.00215585
0.00169225
0.00129272
0.000954523
0.000675334
0.000452595
0.00028194
0.000156346
6.66351e-05
1.16138e-05
1.65957e-06
2.5859e-06
2.74714e-06
1.82034e-06
1.36058e-05
7.26074e-05
0.000162092
0.000278639
0.000423904
0.000600836
0.000814101
0.00106949
0.0013735
0.00173292
0.00215458
0.00264497
0.00320989
0.00385384
0.00457966
0.00538811
0.00627751
0.00724361
0.00827944
0.00937533
0.010519
0.0116955
0.0128877
0.014076
0.0152383
0.0163501
0.0173833
0.0183057
0.0190777
0.0196496
0.0199549
0.0199044
0.0195586
0.018985
0.0182337
0.0173454
0.0163542
0.0152888
0.0141742
0.0130328
0.0118841
0.0107456
0.00963236
0.0085575
0.00753195
0.00656451
0.00566189
0.00482873
0.00406774
0.00337984
0.00276437
0.00221947
0.00174251
0.00133062
0.000981305
0.000692609
0.000462468
0.000286874
0.000158603
6.77177e-05
1.18978e-05
1.68179e-06
2.60103e-06
2.76549e-06
1.8487e-06
1.39706e-05
7.3777e-05
0.000164069
0.00028201
0.000429663
0.000610411
0.000829193
0.00109189
0.00140491
0.0017749
0.00220845
0.00271183
0.0032905
0.00394868
0.00468888
0.00551154
0.00641473
0.00739397
0.00844213
0.00954944
0.0107036
0.0118898
0.0130908
0.0142871
0.015457
0.0165759
0.017616
0.0185452
0.0193236
0.0199017
0.0202126
0.0201661
0.0198223
0.0192489
0.0184959
0.0176043
0.0166081
0.0155362
0.0144139
0.0132633
0.0121043
0.0109542
0.00982852
0.00874031
0.0077007
0.00671864
0.005801
0.00495264
0.00417646
0.00347358
0.00284356
0.0022847
0.00179453
0.00137036
0.00100986
0.000711447
0.000473562
0.000292645
0.000161367
6.90826e-05
1.22642e-05
1.71045e-06
2.61768e-06
2.7831e-06
1.87232e-06
1.42766e-05
7.47454e-05
0.000165762
0.000285108
0.000435303
0.000620167
0.000844878
0.00111534
0.00143785
0.00181887
0.00226472
0.00278146
0.00337421
0.00404687
0.00480165
0.00563865
0.00655566
0.00754798
0.00860831
0.00972682
0.0108912
0.0120866
0.013296
0.0145002
0.0156774
0.0168032
0.01785
0.0187859
0.0195709
0.0201553
0.0204722
0.02043
0.0200886
0.0195156
0.0187613
0.0178667
0.016866
0.0157881
0.0146583
0.0134989
0.0123298
0.0111685
0.0100305
0.00892901
0.00787527
0.00687842
0.00594551
0.00508162
0.00428986
0.00357157
0.00292653
0.00235323
0.00184938
0.0014124
0.0010402
0.000731512
0.000485338
0.000298668
0.000164149
7.04096e-05
1.26218e-05
1.73811e-06
2.63433e-06
2.80203e-06
1.90155e-06
1.46557e-05
7.59318e-05
0.000167812
0.000288739
0.000441692
0.000630924
0.000861822
0.00114028
0.00147244
0.00186454
0.00232271
0.00285267
0.00345929
0.00414616
0.00491518
0.00576617
0.00669669
0.00770181
0.00877413
0.00990374
0.0110783
0.0122831
0.0135012
0.0147134
0.0158981
0.0170311
0.0180849
0.0190278
0.0198195
0.0204106
0.0207337
0.0206961
0.0203571
0.0197847
0.0190291
0.0181314
0.0171259
0.0160417
0.0149042
0.0137357
0.0125563
0.0113836
0.0102331
0.00911828
0.00805045
0.00703892
0.00609093
0.0052117
0.00440457
0.00367108
0.00301119
0.00242358
0.00190608
0.00145628
0.00107224
0.000753005
0.00049816
0.000305329
0.000167261
7.18956e-05
1.30288e-05
1.76944e-06
2.65191e-06
2.82082e-06
1.92893e-06
1.5013e-05
7.70377e-05
0.000169771
0.000292359
0.000448281
0.000642213
0.00087971
0.00116659
0.00150883
0.0019124
0.00238321
0.00292668
0.00354741
0.00424868
0.00503207
0.00589714
0.00684116
0.00785904
0.00894323
0.0100837
0.0112683
0.0124821
0.0137086
0.0149284
0.0161204
0.0172605
0.0183212
0.019271
0.0200697
0.0206676
0.020997
0.0209644
0.0206283
0.0200568
0.0193003
0.0183998
0.0173899
0.0162997
0.0151548
0.0139775
0.0127879
0.0116039
0.010441
0.00931276
0.00823073
0.00720434
0.00624101
0.00534618
0.00452338
0.00377436
0.00309928
0.00249701
0.00196553
0.00150254
0.00110625
0.00077601
0.000511977
0.000312509
0.000170573
7.34481e-05
1.34578e-05
1.80218e-06
2.66999e-06
2.84052e-06
1.96e-06
1.54193e-05
7.82776e-05
0.000171964
0.000296373
0.000455492
0.000654403
0.000898787
0.00119435
0.00154683
0.00196197
0.00244541
0.00300231
0.00363698
0.00435241
0.00514989
0.00602872
0.00698595
0.00801631
0.00911215
0.0102634
0.0114579
0.0126809
0.0139157
0.0151435
0.016343
0.0174903
0.0185582
0.0195151
0.0203209
0.0209259
0.0212622
0.0212347
0.0209017
0.0203313
0.0195739
0.0186706
0.0176562
0.0165599
0.0154073
0.014221
0.0130212
0.0118257
0.0106503
0.00950871
0.00841252
0.00737136
0.00639281
0.0054825
0.00464414
0.00387968
0.00318948
0.00257257
0.00202706
0.00155079
0.00114206
0.000800513
0.000526875
0.000320323
0.000174179
7.51237e-05
1.39273e-05
1.83777e-06
2.68879e-06
2.86044e-06
1.99106e-06
1.58275e-05
7.95103e-05
0.000174186
0.000300544
0.000463108
0.000667352
0.000919016
0.00122365
0.00158673
0.00201376
0.00251008
0.0030806
0.00372936
0.00445906
0.0052707
0.00616331
0.00713372
0.0081765
0.00928387
0.0104458
0.0116499
0.0128818
0.0141248
0.0153602
0.016567
0.0177215
0.0187965
0.0197605
0.0205735
0.0211859
0.0215291
0.0215073
0.0211778
0.0206087
0.0198508
0.0189451
0.0179265
0.0168243
0.0156643
0.0144691
0.0132591
0.0120522
0.0108643
0.00970921
0.00859873
0.00754262
0.00654865
0.00562264
0.0047685
0.00398838
0.00328281
0.00265101
0.00209123
0.0016014
0.00117993
0.000826687
0.000542961
0.000328819
0.000178089
7.69192e-05
1.44366e-05
1.87606e-06
2.70832e-06
2.88108e-06
2.02478e-06
1.62719e-05
8.08358e-05
0.000176588
0.000305059
0.000471321
0.000681209
0.000940467
0.00125444
0.00162831
0.00206732
0.00257654
0.00316063
0.00382335
0.00456712
0.00539268
0.0062988
0.00728212
0.00833705
0.00945573
0.0106281
0.0118418
0.0130826
0.0143338
0.015577
0.0167912
0.0179529
0.0190352
0.0200065
0.0208271
0.021447
0.0217977
0.0217818
0.0214561
0.0208886
0.0201303
0.0192222
0.0181994
0.0170913
0.0159238
0.0147197
0.0134994
0.012281
0.0110805
0.00991196
0.00878719
0.00771616
0.00670682
0.00576515
0.00489525
0.00409946
0.00337851
0.00273177
0.00215763
0.0016541
0.0012197
0.00085446
0.000560225
0.000338011
0.00018231
7.88328e-05
1.49857e-05
1.91705e-06
2.72851e-06
2.90213e-06
2.05959e-06
1.67326e-05
8.21956e-05
0.000179089
0.000309839
0.000480077
0.000695973
0.000963207
0.00128686
0.00167184
0.00212306
0.00264536
0.00324314
0.0039199
0.00467778
0.00551726
0.00643686
0.00743302
0.00850001
0.00962987
0.0108125
0.0120357
0.0132851
0.0145443
0.015795
0.0170165
0.0181853
0.019275
0.0202536
0.0210818
0.0217096
0.0220681
0.0220585
0.0217369
0.0211715
0.0204131
0.0195029
0.0184761
0.0173623
0.0161874
0.0149745
0.013744
0.0125141
0.011301
0.0101188
0.00897965
0.00789356
0.00686867
0.00591116
0.00502533
0.0042137
0.00347718
0.00281531
0.00222661
0.00170918
0.00126158
0.000884022
0.000578826
0.000348015
0.000186909
8.0896e-05
1.55867e-05
1.96157e-06
2.74954e-06
2.92383e-06
2.0967e-06
1.72252e-05
8.36323e-05
0.000181756
0.000314966
0.000489465
0.000711704
0.000987246
0.00132087
0.00171712
0.00218066
0.00271607
0.0033275
0.00401819
0.00479003
0.00564321
0.00657606
0.00758482
0.00866362
0.00980445
0.0109972
0.0122296
0.0134876
0.0147548
0.0160131
0.0172419
0.018418
0.0195151
0.0205012
0.0213374
0.0219733
0.0223399
0.0223371
0.02202
0.0214568
0.0206986
0.0197865
0.0187558
0.0176363
0.0164541
0.0152323
0.0139915
0.0127501
0.0115243
0.0103285
0.00917493
0.00807376
0.00703331
0.00605994
0.00515813
0.0043306
0.00357843
0.00290134
0.00229795
0.00176647
0.00130549
0.000915327
0.00059876
0.00035884
0.000191886
8.31016e-05
1.62372e-05
2.00941e-06
2.77131e-06
2.94605e-06
2.13562e-06
1.77436e-05
8.51287e-05
0.000184571
0.000320439
0.000499508
0.000728466
0.00101268
0.00135656
0.00176434
0.00224038
0.00278902
0.00341419
0.00411884
0.00490461
0.00577146
0.00671747
0.00773872
0.00882921
0.00998085
0.0111835
0.0124251
0.0136914
0.0149665
0.0162321
0.0174681
0.0186514
0.0197559
0.0207496
0.0215939
0.0222382
0.0226133
0.0226177
0.0223055
0.0217451
0.0209873
0.0200736
0.0190392
0.0179142
0.0167248
0.0154942
0.0142431
0.0129901
0.0117517
0.0105422
0.00937399
0.0082576
0.00720144
0.00621206
0.00529413
0.00445054
0.00368258
0.00299009
0.00237186
0.00182613
0.00135156
0.000948513
0.000620163
0.000370601
0.000197314
8.54847e-05
1.69498e-05
2.06143e-06
2.79398e-06
2.96891e-06
2.17684e-06
1.82944e-05
8.67007e-05
0.000187561
0.000326298
0.000510253
0.000746288
0.0010395
0.00139391
0.00181339
0.00230203
0.00286394
0.0035028
0.00422132
0.00502089
0.00590122
0.00686018
0.0078937
0.00899564
0.0101579
0.0113703
0.0126208
0.0138954
0.0151781
0.0164511
0.0176943
0.0188848
0.0199968
0.0209984
0.0218509
0.022504
0.0228881
0.0229001
0.0225933
0.0220359
0.0212789
0.0203637
0.0193259
0.0181955
0.0169989
0.0157595
0.0144981
0.0132335
0.0119823
0.010759
0.00957626
0.00844458
0.00737265
0.00636718
0.00543304
0.00457329
0.00378941
0.00308141
0.00244819
0.00188807
0.00139972
0.000983539
0.000643027
0.000383304
0.000203191
8.80342e-05
1.77208e-05
2.1173e-06
2.81743e-06
2.99237e-06
2.22037e-06
1.88776e-05
8.83491e-05
0.000190738
0.000332565
0.000521744
0.000765237
0.0010678
0.00143301
0.00186438
0.00236576
0.00294102
0.00359361
0.00432599
0.0051393
0.00603303
0.00700483
0.00805047
0.00916372
0.0103364
0.0115584
0.0128176
0.0141003
0.0153905
0.0166707
0.017921
0.0191187
0.0202382
0.0212476
0.0221087
0.0227708
0.0231642
0.0231844
0.0228834
0.0223295
0.0215737
0.0206574
0.0196163
0.0184807
0.017277
0.0160288
0.0147572
0.013481
0.012217
0.0109798
0.00978229
0.0086352
0.00754735
0.00652565
0.00557514
0.0046991
0.00389915
0.00317547
0.00252709
0.00195241
0.00145009
0.00102053
0.000667484
0.000397069
0.0002096
9.07897e-05
1.8565e-05
2.17808e-06
2.84184e-06
3.01649e-06
2.26645e-06
1.94968e-05
9.00807e-05
0.000194118
0.000339275
0.000534027
0.00078535
0.00109758
0.00147383
0.00191726
0.00243147
0.00302011
0.00368639
0.00443255
0.00525948
0.00616643
0.00715088
0.00820843
0.00933275
0.0105156
0.0117469
0.0130147
0.0143053
0.015603
0.0168903
0.0181475
0.0193524
0.0204795
0.021497
0.0223668
0.0230383
0.0234415
0.0234704
0.0231757
0.0226257
0.0218715
0.0209543
0.0199102
0.0187695
0.0175588
0.0163019
0.01502
0.0137322
0.0124552
0.0112042
0.00999184
0.00882924
0.00772538
0.00668734
0.00572035
0.00482787
0.0040117
0.0032722
0.00260852
0.00201911
0.00150264
0.00105948
0.000693556
0.000411931
0.000216557
9.37503e-05
1.94827e-05
2.24372e-06
2.86712e-06
3.04125e-06
2.31524e-06
2.01538e-05
9.19009e-05
0.000197716
0.000346465
0.000547155
0.000806689
0.00112891
0.00151644
0.0019721
0.00249923
0.0031013
0.00378128
0.00454118
0.00538164
0.0063017
0.00729866
0.00836795
0.00950318
0.0106961
0.0119365
0.0132127
0.0145109
0.0158158
0.01711
0.0183742
0.0195862
0.0207208
0.0217465
0.0226252
0.0233065
0.02372
0.0237582
0.0234703
0.0229246
0.0221724
0.0212548
0.0202078
0.0190622
0.0178447
0.0165792
0.015287
0.0139875
0.0126976
0.0114325
0.0102052
0.00902698
0.00790696
0.00685242
0.0058688
0.00495973
0.0041272
0.00337171
0.00269255
0.00208825
0.00155746
0.00110048
0.000721346
0.000427996
0.000224136
9.69501e-05
2.04867e-05
2.31512e-06
2.8934e-06
3.06671e-06
2.36696e-06
2.0852e-05
9.38165e-05
0.000201551
0.000354169
0.000561176
0.000829297
0.00116181
0.00156083
0.00202885
0.002569
0.00318451
0.00387816
0.00465171
0.00550558
0.0064386
0.00744787
0.0085287
0.00967459
0.0108772
0.0121266
0.0134109
0.0147166
0.0160285
0.0173296
0.0186005
0.0198197
0.0209618
0.0219958
0.0228838
0.0235752
0.0239995
0.0240475
0.023767
0.0232262
0.0224764
0.0215585
0.0205091
0.0193588
0.0181345
0.0168604
0.015558
0.0142468
0.0129439
0.0116646
0.0104223
0.00922836
0.00809204
0.00702087
0.00602046
0.00509465
0.00424559
0.00347395
0.00277914
0.00215978
0.00161449
0.0011435
0.00075086
0.000445294
0.000232357
0.000100389
2.15762e-05
2.39215e-06
2.92058e-06
3.09286e-06
2.42181e-06
2.15935e-05
9.58337e-05
0.000205643
0.000362427
0.000576138
0.000853223
0.00119633
0.00160704
0.00208757
0.0026408
0.00326978
0.00397708
0.00476423
0.00563141
0.00657725
0.00759867
0.00869084
0.0098472
0.0110594
0.0123174
0.0136096
0.0149226
0.0162413
0.017549
0.0188266
0.0200528
0.0212025
0.0222449
0.0231423
0.0238442
0.0242799
0.0243383
0.0240658
0.0235304
0.0227835
0.0218658
0.0208142
0.0196593
0.0184285
0.0171459
0.0158333
0.0145103
0.0131944
0.0119009
0.0106435
0.00943358
0.00828083
0.00719287
0.00617551
0.00523277
0.00436701
0.00357904
0.0028684
0.0022338
0.00167384
0.00118864
0.000782204
0.000463938
0.000241307
0.000104107
2.27667e-05
2.47594e-06
2.94881e-06
3.11975e-06
2.48007e-06
2.23825e-05
9.79615e-05
0.000210014
0.00037128
0.000592097
0.000878517
0.00123249
0.0016551
0.00214823
0.00271461
0.00335709
0.004078
0.00487866
0.00575903
0.00671752
0.0077509
0.0088542
0.0100208
0.0112423
0.0125087
0.0138085
0.0151285
0.0164539
0.0177679
0.0190522
0.0202853
0.0214426
0.0224936
0.0234006
0.0241134
0.024561
0.0246305
0.0243667
0.0238372
0.0230936
0.0221766
0.021123
0.0199639
0.0187266
0.0174356
0.0161129
0.0147781
0.013449
0.0121413
0.0108686
0.00964268
0.00847333
0.00736842
0.00633394
0.00537411
0.00449146
0.00368697
0.00296033
0.0023103
0.00173549
0.00123589
0.0008154
0.000483974
0.000251024
0.000108116
2.40613e-05
2.56669e-06
2.97801e-06
3.14735e-06
2.54191e-06
2.32208e-05
0.000100206
0.000214684
0.000380767
0.000609099
0.000905218
0.00127033
0.001705
0.00221087
0.00279045
0.00344642
0.00418091
0.00499501
0.00588846
0.00685946
0.00790461
0.00901884
0.0101954
0.011426
0.0127006
0.0140077
0.0153345
0.0166662
0.0179865
0.019277
0.0205171
0.0216819
0.0227416
0.0236586
0.0243827
0.0248428
0.024924
0.0246695
0.0241466
0.0234069
0.0224909
0.0214358
0.0202726
0.0190291
0.0177298
0.0163969
0.0150504
0.0137081
0.012386
0.0110979
0.00985581
0.0086697
0.00754766
0.00649588
0.00551877
0.00461904
0.00379784
0.00305499
0.00238935
0.00179951
0.00128532
0.00085053
0.000505502
0.000261589
0.000112454
2.54739e-05
2.6654e-06
3.00828e-06
3.17574e-06
2.60772e-06
2.41136e-05
0.000102578
0.000219683
0.000390938
0.000627205
0.000933381
0.00130987
0.00175678
0.00227548
0.00286832
0.00353779
0.00428582
0.00511326
0.00601966
0.007003
0.00805973
0.00918465
0.010371
0.0116103
0.0128928
0.014207
0.0155402
0.016878
0.0182043
0.019501
0.0207478
0.0219203
0.0229887
0.0239159
0.0246518
0.025125
0.0252187
0.0249742
0.0244584
0.0237232
0.0228087
0.0217524
0.0205855
0.0193359
0.0180284
0.0166854
0.0153271
0.0139716
0.012635
0.0113314
0.010073
0.00886997
0.00773062
0.00666135
0.00566675
0.00474974
0.00391162
0.00315237
0.00247092
0.00186586
0.00133691
0.000887592
0.000528553
0.000273041
0.000117129
2.70052e-05
2.77214e-06
3.03952e-06
3.20488e-06
2.67764e-06
2.50624e-05
0.000105085
0.000225031
0.000401832
0.000646456
0.000963035
0.00135115
0.00181044
0.00234206
0.0029482
0.00363117
0.00439269
0.00523341
0.00615262
0.00714815
0.00821626
0.00935164
0.0105474
0.0117953
0.0130853
0.0144063
0.0157457
0.0170892
0.0184213
0.019724
0.0209775
0.0221574
0.0232347
0.0241724
0.0249205
0.0254075
0.0255145
0.0252807
0.0247727
0.0240427
0.0231301
0.0220729
0.0209026
0.0196471
0.0183316
0.0169786
0.0156085
0.0142397
0.0128886
0.0115693
0.0102944
0.00907432
0.00791747
0.0068305
0.00581822
0.00488371
0.00402847
0.00325259
0.00255512
0.00193465
0.00139075
0.000926682
0.000553238
0.000285477
0.000122192
2.86726e-05
2.88824e-06
3.07185e-06
3.23484e-06
2.75217e-06
2.60733e-05
0.000107741
0.000230766
0.000413507
0.000666917
0.000994236
0.0013942
0.00186602
0.00241064
0.00303012
0.00372659
0.00450156
0.00535545
0.00628735
0.00729488
0.00837417
0.00951977
0.0107248
0.0119808
0.0132781
0.0146056