/*--------------------------------*- C++ -*----------------------------------*\
| =========                 |                                                 |
| \\      /  F ield         | OpenFOAM: The Open Source CFD Toolbox           |
|  \\    /   O peration     | Version:  2412                                  |
|   \\  /    A nd           | Website:  www.openfoam.com                      |
|    \\/     M anipulation  |                                                 |
\*---------------------------------------------------------------------------*/
FoamFile
{
    version     2.0;
    format      ascii;
    arch        "LSB;label=32;scalar=64";
    class       volScalarField;
    location    "710";
    object      p;
}
// * * * * * * * * * * * * * * * * * * * * * * * * * * * * * * * * * * * * * //

dimensions      [0 2 -2 0 0 0 0];

internalField   nonuniform List<scalar> 
32240
(
6.3202e-05
6.32309e-05
6.3274e-05
6.33403e-05
6.34526e-05
6.36241e-05
6.38601e-05
6.41604e-05
6.45335e-05
6.49816e-05
6.55212e-05
6.61594e-05
6.69223e-05
6.78211e-05
6.88899e-05
7.01424e-05
7.16167e-05
7.33228e-05
7.52995e-05
7.75477e-05
8.0099e-05
8.2935e-05
8.60772e-05
8.94769e-05
9.31429e-05
9.69927e-05
0.000101018
0.000105111
0.000109247
0.000113327
0.000117317
0.000121193
0.000125011
0.000128611
0.000131652
0.00013416
0.000136106
0.000137549
0.000138502
0.000139057
0.000139251
0.000139185
0.000138895
0.00013847
0.000137933
0.00013735
0.000136727
0.000136112
0.000135501
0.000134922
0.000134368
0.000133856
0.000133375
0.000132937
0.000132533
0.000132169
0.00013184
0.000131552
0.000131307
0.000131111
0.000130967
0.000130874
0.000130823
0.000130796
0.000130783
0.000380174
0.000380205
0.000380264
0.000380356
0.000380501
0.000380707
0.000380959
0.000381234
0.000381511
0.000381757
0.000381948
0.000382048
0.000382028
0.00038185
0.000381486
0.0003809
0.000380076
0.000378987
0.000377636
0.000376013
0.00037414
0.000372019
0.000369688
0.000367165
0.000364499
0.00036172
0.000358888
0.00035604
0.000353242
0.00035054
0.000347999
0.000345676
0.000343612
0.000341961
0.000340869
0.000340328
0.000340309
0.00034079
0.000341711
0.00034302
0.000344625
0.000346459
0.00034842
0.000350443
0.000352441
0.000354363
0.000356145
0.000357758
0.000359164
0.000360356
0.00036132
0.000362067
0.000362605
0.000362958
0.000363146
0.000363201
0.000363152
0.000363031
0.000362871
0.000362705
0.000362558
0.000362455
0.000362387
0.00036234
0.000362311
0.00057752
0.00057755
0.000577601
0.00057768
0.000577807
0.000577991
0.000578225
0.000578494
0.000578786
0.000579084
0.000579378
0.000579648
0.000579884
0.00058007
0.000580204
0.000580275
0.000580292
0.000580251
0.000580168
0.000580047
0.000579911
0.00057977
0.000579652
0.000579564
0.000579534
0.000579564
0.000579672
0.000579856
0.000580128
0.00058049
0.000580964
0.000581589
0.000582461
0.000583624
0.000584975
0.000586486
0.000588116
0.00058984
0.000591617
0.000593426
0.000595227
0.000597003
0.000598715
0.00060035
0.000601874
0.000603279
0.000604539
0.000605654
0.000606608
0.000607408
0.00060805
0.000608547
0.000608901
0.000609127
0.000609237
0.000609252
0.00060919
0.000609077
0.000608935
0.00060879
0.000608665
0.000608574
0.000608515
0.000608476
0.000608452
0.000817439
0.00081747
0.000817526
0.000817618
0.000817766
0.000817977
0.000818239
0.000818535
0.00081885
0.000819167
0.000819471
0.000819742
0.000819966
0.000820123
0.000820204
0.000820192
0.000820088
0.000819883
0.000819589
0.000819203
0.000818745
0.000818218
0.000817646
0.000817035
0.000816411
0.000815785
0.000815184
0.000814624
0.00081414
0.000813761
0.000813539
0.000813535
0.000813837
0.000814477
0.000815382
0.000816516
0.00081784
0.000819324
0.000820926
0.000822617
0.000824351
0.0008261
0.000827819
0.000829482
0.00083105
0.000832506
0.00083382
0.000834985
0.000835983
0.000836817
0.000837481
0.000837986
0.000838337
0.000838552
0.000838645
0.000838639
0.000838554
0.000838417
0.000838252
0.000838086
0.000837944
0.000837842
0.000837777
0.000837735
0.000837709
0.00104251
0.00104254
0.00104259
0.00104268
0.00104282
0.00104302
0.00104328
0.00104357
0.00104388
0.00104419
0.00104449
0.00104475
0.00104497
0.00104512
0.00104522
0.00104524
0.00104519
0.00104507
0.00104489
0.00104465
0.00104437
0.00104407
0.00104377
0.00104348
0.00104322
0.00104301
0.00104287
0.00104282
0.00104288
0.00104307
0.00104344
0.00104403
0.00104493
0.00104614
0.00104754
0.0010491
0.00105079
0.00105258
0.00105444
0.00105634
0.00105824
0.00106013
0.00106196
0.00106371
0.00106536
0.00106688
0.00106825
0.00106947
0.00107052
0.0010714
0.00107211
0.00107267
0.00107307
0.00107333
0.00107347
0.0010735
0.00107345
0.00107333
0.00107318
0.00107302
0.00107287
0.00107277
0.0010727
0.00107266
0.00107263
0.00127211
0.00127215
0.00127221
0.0012723
0.00127245
0.00127267
0.00127294
0.00127324
0.00127356
0.00127388
0.00127418
0.00127445
0.00127467
0.00127482
0.0012749
0.0012749
0.00127482
0.00127466
0.00127443
0.00127415
0.00127382
0.00127347
0.00127311
0.00127276
0.00127244
0.00127217
0.00127198
0.00127187
0.00127188
0.00127203
0.00127238
0.00127296
0.00127388
0.00127511
0.00127652
0.0012781
0.00127981
0.00128162
0.00128351
0.00128545
0.0012874
0.00128934
0.00129124
0.00129306
0.00129479
0.00129639
0.00129784
0.00129914
0.00130027
0.00130122
0.001302
0.00130262
0.00130307
0.00130337
0.00130353
0.00130357
0.00130352
0.00130341
0.00130325
0.00130309
0.00130294
0.00130284
0.00130277
0.00130272
0.0013027
0.00149816
0.0014982
0.00149826
0.00149835
0.0014985
0.00149872
0.00149899
0.0014993
0.00149962
0.00149993
0.00150023
0.00150048
0.00150069
0.00150084
0.00150092
0.00150092
0.00150085
0.00150071
0.00150051
0.00150026
0.00149998
0.00149968
0.00149939
0.00149912
0.00149889
0.00149871
0.00149862
0.00149864
0.00149877
0.00149907
0.00149956
0.0015003
0.00150139
0.00150278
0.00150435
0.00150606
0.00150789
0.00150981
0.00151179
0.00151382
0.00151585
0.00151786
0.00151982
0.00152169
0.00152347
0.00152511
0.00152661
0.00152795
0.00152911
0.0015301
0.00153092
0.00153156
0.00153204
0.00153238
0.00153257
0.00153265
0.00153263
0.00153253
0.00153238
0.00153222
0.00153208
0.00153197
0.00153189
0.00153185
0.00153182
0.00172383
0.00172386
0.00172392
0.00172402
0.00172418
0.00172441
0.00172469
0.00172501
0.00172534
0.00172566
0.00172597
0.00172623
0.00172643
0.00172656
0.00172662
0.0017266
0.0017265
0.00172634
0.00172611
0.00172584
0.00172554
0.00172522
0.00172492
0.00172464
0.00172441
0.00172426
0.00172418
0.00172422
0.00172439
0.00172473
0.00172527
0.00172607
0.00172723
0.00172869
0.00173033
0.0017321
0.001734
0.00173598
0.00173804
0.00174013
0.00174224
0.00174432
0.00174637
0.00174833
0.00175019
0.00175193
0.00175352
0.00175494
0.00175619
0.00175727
0.00175816
0.00175888
0.00175942
0.0017598
0.00176003
0.00176013
0.00176012
0.00176002
0.00175987
0.00175971
0.00175955
0.00175944
0.00175937
0.00175932
0.00175929
0.00194752
0.00194756
0.00194763
0.00194773
0.00194789
0.00194812
0.00194841
0.00194872
0.00194905
0.00194937
0.00194966
0.00194991
0.0019501
0.00195023
0.00195029
0.00195027
0.00195019
0.00195003
0.00194982
0.00194956
0.00194928
0.001949
0.00194872
0.00194848
0.00194829
0.00194817
0.00194815
0.00194824
0.00194847
0.00194886
0.00194947
0.00195035
0.0019516
0.00195315
0.00195487
0.00195672
0.00195869
0.00196075
0.00196287
0.00196503
0.00196719
0.00196934
0.00197143
0.00197345
0.00197536
0.00197715
0.00197878
0.00198025
0.00198154
0.00198266
0.00198358
0.00198433
0.00198491
0.00198532
0.00198558
0.00198571
0.00198573
0.00198565
0.00198552
0.00198536
0.00198521
0.00198509
0.00198501
0.00198496
0.00198493
0.00217003
0.00217007
0.00217013
0.00217024
0.00217041
0.00217065
0.00217095
0.00217127
0.00217161
0.00217194
0.00217223
0.00217248
0.00217266
0.00217277
0.0021728
0.00217275
0.00217264
0.00217246
0.00217222
0.00217195
0.00217166
0.00217136
0.00217109
0.00217085
0.00217068
0.00217059
0.00217059
0.00217072
0.00217099
0.00217144
0.00217211
0.00217305
0.00217437
0.002176
0.00217779
0.00217972
0.00218176
0.00218389
0.00218609
0.00218833
0.00219058
0.00219281
0.002195
0.00219711
0.00219912
0.002201
0.00220273
0.0022043
0.00220568
0.00220689
0.0022079
0.00220874
0.00220939
0.00220986
0.00221018
0.00221035
0.00221038
0.00221032
0.00221019
0.00221003
0.00220987
0.00220975
0.00220967
0.00220962
0.00220958
0.00239078
0.00239082
0.00239089
0.002391
0.00239117
0.00239142
0.00239171
0.00239204
0.00239237
0.00239269
0.00239298
0.00239322
0.0023934
0.00239351
0.00239354
0.0023935
0.00239339
0.00239322
0.00239299
0.00239273
0.00239245
0.00239218
0.00239193
0.00239172
0.00239157
0.00239151
0.00239155
0.00239172
0.00239204
0.00239254
0.00239326
0.00239427
0.00239566
0.00239736
0.00239922
0.00240122
0.00240332
0.00240552
0.00240778
0.00241008
0.00241239
0.00241469
0.00241693
0.0024191
0.00242116
0.00242309
0.00242488
0.00242649
0.00242793
0.00242917
0.00243023
0.00243109
0.00243177
0.00243228
0.00243262
0.00243281
0.00243287
0.00243283
0.00243272
0.00243256
0.00243241
0.00243229
0.0024322
0.00243215
0.00243211
0.00261025
0.00261029
0.00261036
0.00261048
0.00261066
0.00261091
0.00261122
0.00261156
0.0026119
0.00261222
0.0026125
0.00261273
0.00261288
0.00261297
0.00261297
0.0026129
0.00261276
0.00261256
0.00261232
0.00261204
0.00261176
0.00261148
0.00261123
0.00261103
0.00261091
0.00261087
0.00261095
0.00261116
0.00261152
0.00261207
0.00261285
0.00261393
0.00261539
0.00261717
0.0026191
0.00262117
0.00262335
0.00262562
0.00262796
0.00263034
0.00263273
0.00263511
0.00263744
0.0026397
0.00264185
0.00264388
0.00264576
0.00264746
0.00264899
0.00265033
0.00265147
0.00265242
0.00265318
0.00265375
0.00265416
0.0026544
0.00265449
0.00265447
0.00265436
0.0026542
0.00265404
0.00265392
0.00265383
0.00265377
0.00265374
0.00282798
0.00282802
0.0028281
0.00282821
0.0028284
0.00282865
0.00282896
0.0028293
0.00282964
0.00282995
0.00283024
0.00283046
0.00283062
0.00283071
0.00283071
0.00283064
0.00283051
0.00283031
0.00283007
0.00282981
0.00282953
0.00282927
0.00282904
0.00282887
0.00282877
0.00282876
0.00282887
0.00282912
0.00282953
0.00283013
0.00283097
0.00283211
0.00283365
0.0028355
0.00283751
0.00283965
0.00284191
0.00284425
0.00284666
0.0028491
0.00285157
0.00285401
0.00285641
0.00285873
0.00286096
0.00286305
0.00286499
0.00286676
0.00286834
0.00286973
0.00287092
0.00287191
0.00287271
0.00287331
0.00287374
0.00287401
0.00287413
0.00287412
0.00287403
0.00287388
0.00287373
0.0028736
0.00287351
0.00287345
0.00287342
0.00304437
0.00304442
0.0030445
0.00304462
0.00304481
0.00304508
0.0030454
0.00304574
0.00304608
0.0030464
0.00304666
0.00304686
0.003047
0.00304705
0.00304703
0.00304693
0.00304677
0.00304655
0.0030463
0.00304602
0.00304575
0.00304549
0.00304527
0.00304511
0.00304504
0.00304507
0.00304522
0.00304551
0.00304597
0.00304664
0.00304754
0.00304875
0.00305038
0.00305232
0.00305441
0.00305663
0.00305896
0.00306139
0.00306388
0.00306642
0.00306897
0.00307152
0.00307401
0.00307644
0.00307876
0.00308095
0.00308299
0.00308486
0.00308655
0.00308804
0.00308932
0.00309041
0.00309129
0.00309198
0.00309249
0.00309282
0.00309299
0.00309302
0.00309294
0.0030928
0.00309264
0.00309251
0.00309242
0.00309236
0.00309232
0.0032589
0.00325895
0.00325903
0.00325916
0.00325935
0.00325962
0.00325995
0.0032603
0.00326065
0.00326098
0.00326126
0.00326147
0.00326161
0.00326167
0.00326166
0.00326157
0.00326141
0.0032612
0.00326095
0.00326069
0.00326043
0.00326019
0.00326
0.00325987
0.00325983
0.0032599
0.0032601
0.00326044
0.00326095
0.00326167
0.00326264
0.00326393
0.00326563
0.00326766
0.00326983
0.00327213
0.00327454
0.00327704
0.0032796
0.00328221
0.00328484
0.00328745
0.00329001
0.00329251
0.0032949
0.00329716
0.00329927
0.00330121
0.00330296
0.0033045
0.00330584
0.00330698
0.0033079
0.00330862
0.00330915
0.0033095
0.00330969
0.00330973
0.00330966
0.00330952
0.00330937
0.00330924
0.00330915
0.00330908
0.00330904
0.00347258
0.00347263
0.00347271
0.00347284
0.00347304
0.00347332
0.00347365
0.00347399
0.00347433
0.00347462
0.00347487
0.00347505
0.00347515
0.00347517
0.00347511
0.00347498
0.00347479
0.00347456
0.00347429
0.00347401
0.00347374
0.00347349
0.0034733
0.00347319
0.00347316
0.00347326
0.00347348
0.00347387
0.00347443
0.00347521
0.00347624
0.0034776
0.00347939
0.0034815
0.00348376
0.00348615
0.00348865
0.00349124
0.0034939
0.00349661
0.00349934
0.00350206
0.00350473
0.00350734
0.00350984
0.00351221
0.00351443
0.00351648
0.00351833
0.00351998
0.00352142
0.00352265
0.00352367
0.00352448
0.0035251
0.00352552
0.00352578
0.00352587
0.00352583
0.00352572
0.00352556
0.00352543
0.00352534
0.00352527
0.00352523
0.00368405
0.0036841
0.00368419
0.00368432
0.00368453
0.00368482
0.00368516
0.00368552
0.00368587
0.00368618
0.00368643
0.00368661
0.00368672
0.00368674
0.00368669
0.00368656
0.00368638
0.00368615
0.00368589
0.00368562
0.00368537
0.00368515
0.00368498
0.0036849
0.00368492
0.00368505
0.00368533
0.00368577
0.00368639
0.00368724
0.00368835
0.00368979
0.00369166
0.00369386
0.0036962
0.00369867
0.00370124
0.0037039
0.00370664
0.00370941
0.00371221
0.00371499
0.00371773
0.00372041
0.00372298
0.00372542
0.0037277
0.00372981
0.00373173
0.00373344
0.00373494
0.00373622
0.00373729
0.00373814
0.00373879
0.00373923
0.00373949
0.00373959
0.00373955
0.00373942
0.00373926
0.00373913
0.00373903
0.00373896
0.00373891
0.0038946
0.00389465
0.00389474
0.00389488
0.00389509
0.00389538
0.00389572
0.00389607
0.0038964
0.00389669
0.00389692
0.00389707
0.00389715
0.00389714
0.00389706
0.0038969
0.00389669
0.00389644
0.00389616
0.00389589
0.00389563
0.00389541
0.00389526
0.00389519
0.00389523
0.0038954
0.00389572
0.00389621
0.00389689
0.0038978
0.00389898
0.0039005
0.00390248
0.00390478
0.00390723
0.0039098
0.00391248
0.00391525
0.00391809
0.00392099
0.0039239
0.00392681
0.00392968
0.00393247
0.00393517
0.00393773
0.00394014
0.00394237
0.00394441
0.00394624
0.00394785
0.00394923
0.0039504
0.00395135
0.00395209
0.00395262
0.00395296
0.00395312
0.00395313
0.00395304
0.0039529
0.00395277
0.00395267
0.0039526
0.00395255
0.00410321
0.00410327
0.00410336
0.0041035
0.00410373
0.00410403
0.00410438
0.00410474
0.00410508
0.00410537
0.0041056
0.00410574
0.00410581
0.00410579
0.0041057
0.00410554
0.00410533
0.00410507
0.0041048
0.00410453
0.00410428
0.00410408
0.00410395
0.00410391
0.00410399
0.00410421
0.00410457
0.00410512
0.00410587
0.00410685
0.00410811
0.00410972
0.0041118
0.0041142
0.00411674
0.00411939
0.00412216
0.00412502
0.00412795
0.00413092
0.00413392
0.00413692
0.00413987
0.00414275
0.00414554
0.00414819
0.00415068
0.004153
0.00415512
0.00415703
0.00415871
0.00416017
0.00416141
0.00416242
0.0041632
0.00416378
0.00416415
0.00416434
0.00416436
0.00416427
0.00416412
0.00416398
0.00416388
0.0041638
0.00416375
0.00431064
0.0043107
0.0043108
0.00431094
0.00431117
0.00431147
0.00431182
0.00431217
0.00431249
0.00431277
0.00431297
0.0043131
0.00431314
0.0043131
0.00431298
0.0043128
0.00431256
0.0043123
0.00431201
0.00431174
0.00431149
0.0043113
0.00431119
0.00431117
0.00431128
0.00431154
0.00431195
0.00431256
0.00431337
0.00431442
0.00431577
0.00431748
0.00431965
0.00432217
0.00432481
0.00432757
0.00433044
0.00433341
0.00433645
0.00433954
0.00434265
0.00434575
0.00434882
0.00435182
0.00435472
0.00435749
0.0043601
0.00436252
0.00436475
0.00436676
0.00436855
0.0043701
0.00437142
0.00437251
0.00437338
0.00437403
0.00437446
0.0043747
0.00437476
0.0043747
0.00437457
0.00437444
0.00437433
0.00437426
0.0043742
0.00451637
0.00451643
0.00451653
0.00451668
0.00451691
0.00451723
0.00451758
0.00451794
0.00451827
0.00451854
0.00451873
0.00451884
0.00451887
0.00451881
0.00451868
0.00451848
0.00451823
0.00451795
0.00451767
0.00451739
0.00451715
0.00451698
0.00451688
0.0045169
0.00451705
0.00451735
0.00451782
0.00451848
0.00451937
0.0045205
0.00452194
0.00452374
0.00452603
0.00452866
0.00453141
0.00453427
0.00453725
0.00454031
0.00454345
0.00454664
0.00454986
0.00455307
0.00455624
0.00455935
0.00456236
0.00456523
0.00456795
0.00457048
0.00457281
0.00457492
0.0045768
0.00457845
0.00457985
0.00458102
0.00458196
0.00458267
0.00458316
0.00458344
0.00458353
0.00458348
0.00458334
0.00458321
0.0045831
0.00458302
0.00458296
0.00472072
0.00472078
0.00472088
0.00472104
0.00472128
0.00472159
0.00472194
0.00472229
0.00472261
0.00472286
0.00472304
0.00472312
0.00472313
0.00472305
0.00472289
0.00472267
0.00472241
0.00472212
0.00472183
0.00472155
0.00472132
0.00472115
0.00472108
0.00472113
0.00472131
0.00472166
0.00472219
0.00472292
0.00472388
0.00472509
0.00472662
0.00472853
0.00473094
0.00473369
0.00473656
0.00473955
0.00474264
0.00474582
0.00474908
0.0047524
0.00475574
0.00475908
0.00476238
0.00476562
0.00476875
0.00477176
0.0047746
0.00477725
0.0047797
0.00478192
0.00478391
0.00478566
0.00478717
0.00478843
0.00478945
0.00479024
0.0047908
0.00479114
0.00479127
0.00479125
0.00479114
0.00479101
0.0047909
0.00479081
0.00479076
0.0049235
0.00492357
0.00492367
0.00492383
0.00492408
0.0049244
0.00492476
0.00492511
0.00492542
0.00492566
0.00492582
0.00492589
0.00492587
0.00492576
0.00492559
0.00492535
0.00492507
0.00492477
0.00492447
0.00492419
0.00492396
0.00492381
0.00492376
0.00492383
0.00492406
0.00492445
0.00492504
0.00492584
0.00492687
0.00492818
0.00492981
0.00493183
0.00493436
0.00493724
0.00494022
0.00494332
0.00494653
0.00494983
0.0049532
0.00495663
0.00496009
0.00496355
0.00496697
0.00497032
0.00497358
0.0049767
0.00497966
0.00498243
0.00498499
0.00498733
0.00498943
0.00499128
0.00499288
0.00499423
0.00499533
0.00499619
0.00499681
0.0049972
0.00499738
0.00499738
0.00499727
0.00499714
0.00499703
0.00499694
0.00499688
0.00512478
0.00512485
0.00512496
0.00512512
0.00512537
0.0051257
0.00512605
0.0051264
0.00512669
0.00512692
0.00512705
0.0051271
0.00512705
0.00512693
0.00512673
0.00512647
0.00512618
0.00512586
0.00512555
0.00512528
0.00512505
0.00512492
0.00512489
0.005125
0.00512527
0.00512572
0.00512636
0.00512724
0.00512836
0.00512976
0.00513149
0.00513363
0.0051363
0.0051393
0.00514242
0.00514565
0.00514898
0.00515241
0.00515591
0.00515947
0.00516306
0.00516665
0.0051702
0.00517369
0.00517708
0.00518033
0.00518342
0.00518632
0.00518901
0.00519146
0.00519367
0.00519563
0.00519733
0.00519878
0.00519997
0.00520091
0.00520161
0.00520206
0.00520228
0.00520231
0.00520222
0.0052021
0.00520199
0.0052019
0.00520183
0.00532456
0.00532463
0.00532475
0.00532492
0.00532517
0.00532551
0.00532587
0.00532621
0.00532649
0.0053267
0.00532681
0.00532683
0.00532676
0.0053266
0.00532638
0.0053261
0.00532578
0.00532545
0.00532513
0.00532485
0.00532463
0.00532451
0.0053245
0.00532464
0.00532495
0.00532545
0.00532617
0.00532711
0.00532832
0.00532982
0.00533167
0.00533393
0.00533674
0.00533988
0.00534314
0.00534649
0.00534995
0.00535351
0.00535714
0.00536083
0.00536456
0.00536828
0.00537197
0.0053756
0.00537912
0.00538251
0.00538573
0.00538876
0.00539158
0.00539416
0.00539649
0.00539856
0.00540037
0.00540191
0.0054032
0.00540422
0.00540499
0.0054055
0.00540578
0.00540584
0.00540576
0.00540564
0.00540553
0.00540543
0.00540537
0.00552275
0.00552282
0.00552294
0.00552311
0.00552338
0.00552371
0.00552407
0.0055244
0.00552467
0.00552485
0.00552494
0.00552494
0.00552484
0.00552466
0.00552441
0.00552411
0.00552378
0.00552343
0.00552311
0.00552283
0.00552262
0.00552251
0.00552253
0.00552271
0.00552306
0.00552362
0.00552441
0.00552544
0.00552674
0.00552835
0.00553031
0.00553271
0.00553567
0.00553897
0.00554237
0.00554587
0.00554948
0.00555318
0.00555696
0.00556081
0.00556469
0.00556857
0.00557242
0.0055762
0.00557988
0.00558343
0.0055868
0.00558998
0.00559294
0.00559566
0.00559813
0.00560033
0.00560226
0.00560392
0.00560531
0.00560643
0.00560728
0.00560787
0.00560821
0.00560831
0.00560826
0.00560815
0.00560804
0.00560794
0.00560787
0.00571947
0.00571955
0.00571967
0.00571985
0.00572011
0.00572045
0.00572081
0.00572113
0.00572138
0.00572154
0.00572161
0.00572157
0.00572144
0.00572123
0.00572095
0.00572062
0.00572027
0.0057199
0.00571956
0.00571927
0.00571907
0.00571897
0.00571901
0.00571922
0.00571962
0.00572024
0.0057211
0.00572221
0.00572361
0.00572533
0.00572742
0.00572995
0.00573306
0.00573652
0.00574007
0.00574371
0.00574746
0.00575131
0.00575523
0.00575921
0.00576323
0.00576726
0.00577125
0.00577518
0.00577901
0.0057827
0.00578622
0.00578954
0.00579264
0.00579549
0.00579809
0.00580041
0.00580245
0.00580422
0.00580571
0.00580692
0.00580786
0.00580852
0.00580891
0.00580905
0.00580902
0.00580892
0.00580881
0.0058087
0.00580863
0.00591452
0.0059146
0.00591472
0.00591491
0.00591518
0.00591552
0.00591587
0.00591618
0.00591641
0.00591655
0.00591659
0.00591652
0.00591636
0.00591612
0.00591582
0.00591546
0.00591509
0.00591471
0.00591436
0.00591407
0.00591387
0.00591379
0.00591386
0.00591411
0.00591457
0.00591525
0.00591618
0.00591739
0.0059189
0.00592074
0.00592296
0.00592564
0.00592892
0.00593254
0.00593625
0.00594006
0.00594396
0.00594796
0.00595204
0.00595619
0.00596037
0.00596456
0.00596872
0.00597281
0.00597681
0.00598066
0.00598434
0.00598782
0.00599107
0.00599406
0.0059968
0.00599925
0.00600142
0.00600331
0.0060049
0.00600622
0.00600725
0.00600799
0.00600845
0.00600864
0.00600863
0.00600854
0.00600843
0.00600832
0.00600825
0.00610809
0.00610817
0.0061083
0.00610848
0.00610876
0.0061091
0.00610945
0.00610974
0.00610995
0.00611007
0.00611007
0.00610997
0.00610978
0.0061095
0.00610916
0.00610877
0.00610837
0.00610797
0.0061076
0.0061073
0.0061071
0.00610703
0.00610713
0.00610741
0.00610792
0.00610866
0.00610968
0.00611098
0.00611259
0.00611456
0.00611692
0.00611976
0.00612321
0.00612701
0.00613089
0.00613486
0.00613893
0.00614309
0.00614733
0.00615164
0.00615599
0.00616034
0.00616467
0.00616893
0.00617309
0.00617711
0.00618096
0.0061846
0.006188
0.00619115
0.00619403
0.00619662
0.00619892
0.00620093
0.00620264
0.00620406
0.00620519
0.00620601
0.00620654
0.00620678
0.00620681
0.00620672
0.00620662
0.00620651
0.00620643
0.00629991
0.00629999
0.00630013
0.00630032
0.0063006
0.00630094
0.00630128
0.00630156
0.00630175
0.00630183
0.00630181
0.00630167
0.00630144
0.00630113
0.00630076
0.00630035
0.00629992
0.0062995
0.00629912
0.00629882
0.00629863
0.00629857
0.0062987
0.00629903
0.00629959
0.00630041
0.00630151
0.00630292
0.00630466
0.00630675
0.00630927
0.00631228
0.00631592
0.00631992
0.00632398
0.00632814
0.00633238
0.00633673
0.00634116
0.00634565
0.00635019
0.00635474
0.00635926
0.00636372
0.00636808
0.00637229
0.00637632
0.00638015
0.00638373
0.00638706
0.0063901
0.00639285
0.0063953
0.00639745
0.00639929
0.00640083
0.00640206
0.00640299
0.0064036
0.0064039
0.00640396
0.0064039
0.00640379
0.00640368
0.00640359
0.00649022
0.00649031
0.00649044
0.00649064
0.00649092
0.00649126
0.00649159
0.00649185
0.00649201
0.00649206
0.006492
0.00649182
0.00649155
0.0064912
0.00649079
0.00649034
0.00648987
0.00648943
0.00648903
0.00648872
0.00648852
0.00648848
0.00648863
0.00648899
0.00648961
0.0064905
0.00649169
0.0064932
0.00649506
0.0064973
0.00649997
0.00650316
0.00650701
0.0065112
0.00651546
0.0065198
0.00652422
0.00652875
0.00653336
0.00653803
0.00654275
0.00654749
0.00655219
0.00655684
0.00656137
0.00656577
0.00656998
0.00657398
0.00657774
0.00658123
0.00658443
0.00658733
0.00658992
0.00659221
0.00659417
0.00659583
0.00659717
0.00659819
0.00659887
0.00659924
0.00659934
0.00659928
0.00659918
0.00659907
0.00659898
0.0066787
0.00667879
0.00667893
0.00667913
0.00667942
0.00667976
0.00668008
0.00668032
0.00668045
0.00668047
0.00668036
0.00668015
0.00667984
0.00667945
0.006679
0.00667852
0.00667802
0.00667755
0.00667714
0.00667682
0.00667663
0.00667661
0.00667678
0.0066772
0.00667788
0.00667885
0.00668014
0.00668177
0.00668377
0.00668616
0.00668901
0.00669239
0.00669645
0.00670086
0.00670532
0.00670986
0.00671449
0.00671921
0.00672402
0.0067289
0.00673383
0.00673876
0.00674368
0.00674853
0.00675328
0.00675788
0.00676229
0.00676649
0.00677044
0.00677411
0.00677749
0.00678056
0.00678331
0.00678574
0.00678784
0.00678962
0.00679108
0.0067922
0.00679298
0.00679342
0.00679356
0.00679353
0.00679343
0.00679331
0.00679322
0.0068656
0.0068657
0.00686585
0.00686605
0.00686634
0.00686667
0.00686697
0.00686719
0.00686729
0.00686726
0.00686712
0.00686686
0.0068665
0.00686606
0.00686556
0.00686503
0.0068645
0.006864
0.00686356
0.00686323
0.00686303
0.00686302
0.00686322
0.00686367
0.00686441
0.00686546
0.00686685
0.0068686
0.00687074
0.0068733
0.00687632
0.00687991
0.0068842
0.00688884
0.00689352
0.00689827
0.00690311
0.00690803
0.00691305
0.00691814
0.00692328
0.00692843
0.00693355
0.00693862
0.00694358
0.00694839
0.00695301
0.00695741
0.00696155
0.00696541
0.00696897
0.00697222
0.00697513
0.00697771
0.00697996
0.00698187
0.00698345
0.00698468
0.00698556
0.00698607
0.00698626
0.00698625
0.00698616
0.00698603
0.00698594
0.00705058
0.00705068
0.00705083
0.00705104
0.00705133
0.00705166
0.00705194
0.00705213
0.0070522
0.00705213
0.00705194
0.00705164
0.00705123
0.00705075
0.00705021
0.00704964
0.00704907
0.00704854
0.00704808
0.00704773
0.00704754
0.00704754
0.00704778
0.00704829
0.00704909
0.00705024
0.00705174
0.00705362
0.00705591
0.00705865
0.00706187
0.00706568
0.00707022
0.00707511
0.00708003
0.00708501
0.00709008
0.00709524
0.0071005
0.00710583
0.0071112
0.0071166
0.00712197
0.00712729
0.00713249
0.00713754
0.0071424
0.00714704
0.00715141
0.00715549
0.00715926
0.00716269
0.00716579
0.00716855
0.00717096
0.00717302
0.00717474
0.0071761
0.00717708
0.00717768
0.00717793
0.00717795
0.00717787
0.00717774
0.00717764
0.00723388
0.00723399
0.00723414
0.00723435
0.00723464
0.00723496
0.00723523
0.00723538
0.00723541
0.00723529
0.00723505
0.00723469
0.00723423
0.00723369
0.0072331
0.00723248
0.00723186
0.00723129
0.0072308
0.00723043
0.00723023
0.00723024
0.0072305
0.00723105
0.00723193
0.00723316
0.00723477
0.00723679
0.00723924
0.00724216
0.0072456
0.00724964
0.00725444
0.0072596
0.00726476
0.00726998
0.00727529
0.00728068
0.00728617
0.00729173
0.00729734
0.00730297
0.00730858
0.00731413
0.00731957
0.00732485
0.00732994
0.0073348
0.00733939
0.00734368
0.00734764
0.00735127
0.00735455
0.00735748
0.00736004
0.00736225
0.00736411
0.00736559
0.00736668
0.00736736
0.00736767
0.00736771
0.00736764
0.00736752
0.00736741
0.00741514
0.00741525
0.00741541
0.00741562
0.00741591
0.00741622
0.00741646
0.00741659
0.00741657
0.00741641
0.00741611
0.0074157
0.00741519
0.00741459
0.00741395
0.00741328
0.00741262
0.00741201
0.00741149
0.00741111
0.00741091
0.00741093
0.00741123
0.00741183
0.00741278
0.00741412
0.00741585
0.00741803
0.00742066
0.00742378
0.00742744
0.00743173
0.00743682
0.00744226
0.00744769
0.00745318
0.00745874
0.00746439
0.00747014
0.00747596
0.00748184
0.00748773
0.00749361
0.00749943
0.00750513
0.00751068
0.00751603
0.00752114
0.00752597
0.00753049
0.00753468
0.00753852
0.007542
0.00754512
0.00754786
0.00755023
0.00755223
0.00755384
0.00755506
0.00755584
0.00755621
0.0075563
0.00755624
0.00755611
0.00755599
0.00759459
0.0075947
0.00759487
0.00759508
0.00759537
0.00759566
0.00759588
0.00759596
0.0075959
0.00759568
0.00759533
0.00759485
0.00759427
0.00759361
0.0075929
0.00759217
0.00759145
0.0075908
0.00759024
0.00758983
0.00758962
0.00758965
0.00758997
0.00759062
0.00759164
0.00759308
0.00759494
0.00759727
0.00760009
0.00760342
0.00760733
0.00761189
0.00761729
0.00762303
0.00762875
0.00763452
0.00764035
0.00764627
0.00765228
0.00765838
0.00766452
0.00767069
0.00767684
0.00768293
0.00768891
0.00769472
0.00770034
0.0077057
0.00771078
0.00771555
0.00771997
0.00772403
0.00772772
0.00773103
0.00773395
0.00773649
0.00773864
0.0077404
0.00774174
0.00774263
0.00774307
0.00774319
0.00774315
0.00774302
0.0077429
0.00777183
0.00777194
0.00777211
0.00777233
0.00777261
0.0077729
0.00777308
0.00777313
0.00777301
0.00777274
0.00777232
0.00777178
0.00777114
0.00777041
0.00776964
0.00776885
0.00776808
0.00776738
0.00776679
0.00776636
0.00776615
0.00776619
0.00776654
0.00776726
0.00776836
0.00776991
0.00777192
0.00777442
0.00777744
0.00778101
0.00778517
0.00779004
0.00779576
0.00780183
0.00780787
0.00781395
0.00782008
0.00782631
0.00783262
0.00783902
0.00784548
0.00785197
0.00785843
0.00786484
0.00787113
0.00787726
0.00788317
0.00788884
0.00789421
0.00789925
0.00790394
0.00790825
0.00791218
0.0079157
0.00791883
0.00792156
0.00792389
0.00792581
0.00792729
0.0079283
0.00792883
0.007929
0.00792897
0.00792884
0.00792872
0.0079471
0.00794722
0.0079474
0.00794761
0.00794789
0.00794815
0.0079483
0.0079483
0.00794812
0.00794778
0.0079473
0.00794668
0.00794596
0.00794516
0.00794431
0.00794345
0.00794262
0.00794186
0.00794122
0.00794076
0.00794052
0.00794057
0.00794095
0.00794171
0.0079429
0.00794456
0.00794671
0.00794939
0.00795263
0.00795644
0.00796089
0.00796607
0.00797215
0.00797857
0.00798494
0.00799133
0.00799778
0.00800431
0.00801093
0.00801764
0.0080244
0.00803119
0.00803797
0.00804468
0.00805127
0.0080577
0.00806391
0.00806987
0.00807552
0.00808083
0.00808578
0.00809033
0.00809449
0.00809823
0.00810156
0.00810448
0.00810698
0.00810906
0.00811068
0.00811181
0.00811243
0.00811264
0.00811263
0.0081125
0.00811237
0.00811994
0.00812007
0.00812025
0.00812047
0.00812074
0.00812098
0.0081211
0.00812104
0.00812081
0.0081204
0.00811984
0.00811915
0.00811836
0.00811748
0.00811656
0.00811563
0.00811473
0.00811391
0.00811323
0.00811274
0.0081125
0.00811255
0.00811297
0.0081138
0.00811508
0.00811686
0.00811918
0.00812206
0.00812553
0.00812962
0.00813437
0.0081399
0.00814636
0.00815317
0.0081599
0.00816664
0.00817343
0.0081803
0.00818726
0.00819431
0.00820142
0.00820855
0.00821568
0.00822273
0.00822967
0.00823644
0.00824299
0.00824927
0.00825523
0.00826085
0.00826609
0.00827092
0.00827533
0.00827932
0.00828287
0.00828599
0.00828868
0.00829094
0.00829272
0.00829398
0.0082947
0.00829497
0.00829499
0.00829486
0.00829472
0.00829061
0.00829075
0.00829093
0.00829115
0.00829141
0.00829162
0.00829169
0.00829158
0.00829127
0.00829079
0.00829015
0.00828937
0.00828848
0.00828752
0.00828651
0.00828549
0.00828451
0.00828363
0.00828289
0.00828235
0.00828208
0.00828214
0.00828258
0.00828346
0.00828484
0.00828675
0.00828924
0.00829233
0.00829604
0.00830042
0.00830551
0.0083114
0.00831829
0.0083255
0.00833262
0.00833974
0.00834689
0.00835412
0.00836143
0.00836883
0.0083763
0.00838379
0.00839127
0.00839868
0.00840598
0.0084131
0.00841999
0.0084266