/*--------------------------------*- C++ -*----------------------------------*\
| =========                 |                                                 |
| \\      /  F ield         | OpenFOAM: The Open Source CFD Toolbox           |
|  \\    /   O peration     | Version:  2412                                  |
|   \\  /    A nd           | Website:  www.openfoam.com                      |
|    \\/     M anipulation  |                                                 |
\*---------------------------------------------------------------------------*/
FoamFile
{
    version     2.0;
    format      ascii;
    arch        "LSB;label=32;scalar=64";
    class       surfaceScalarField;
    location    "710";
    object      phi;
}
// * * * * * * * * * * * * * * * * * * * * * * * * * * * * * * * * * * * * * //

dimensions      [0 3 -1 0 0 0 0];

oriented        oriented;

internalField   nonuniform List<scalar> 
63919
(
6.95e-06
-0.000983911
2.62956e-05
-0.00331907
5.81029e-05
-0.00629279
9.77132e-05
-0.00948308
0.000143191
-0.0125474
0.000194338
-0.0155715
0.000252113
-0.0186851
0.00031636
-0.0219856
0.000387615
-0.0255492
0.000464987
-0.0294394
0.000548306
-0.0337125
0.000635777
-0.0384216
0.000726568
-0.0436189
0.000818189
-0.0493574
0.000909467
-0.0556926
0.000997871
-0.0626837
0.00108257
-0.0703957
0.00116155
-0.0789
0.0012348
-0.0882765
0.0013011
-0.0986139
0.00136128
-0.110011
0.00141448
-0.122575
0.00146204
-0.136426
0.00150284
-0.151693
0.00153818
-0.168515
0.00156617
-0.18704
0.00158722
-0.207425
0.00159806
-0.229831
0.00159695
-0.25442
0.00157855
-0.281353
0.00153682
-0.310773
0.00146285
-0.342801
0.00134456
-0.377505
0.00120351
-0.339964
0.00104886
-0.305913
0.00088895
-0.275117
0.000728574
-0.247318
0.000573158
-0.222253
0.000424996
-0.19967
0.000287426
-0.179328
0.000161177
-0.161009
4.83448e-05
-0.14451
-5.12764e-05
-0.129648
-0.000136327
-0.116257
-0.00020757
-0.104187
-0.000264168
-0.0933045
-0.000307268
-0.0834872
-0.000336468
-0.0746265
-0.00035325
-0.0666249
-0.000357731
-0.0593944
-0.000351761
-0.052856
-0.000335988
-0.0469386
-0.000312603
-0.0415778
-0.000282738
-0.0367147
-0.000248778
-0.0322949
-0.00021209
-0.0282668
-0.000174955
-0.0245796
-0.000138606
-0.021181
-0.00010481
-0.0180127
-7.4369e-05
-0.0150048
-4.77495e-05
-0.0120677
-2.6282e-05
-0.00908255
-1.07423e-05
-0.00599291
-2.52091e-06
-0.00315334
-0.000933896
4.71858e-06
-0.000989182
2.3264e-05
-0.00333863
5.94256e-05
-0.00632973
0.000108669
-0.00953301
0.000168201
-0.0126073
0.000237662
-0.0156414
0.000317511
-0.0187652
0.000407456
-0.0220759
0.000507399
-0.0256493
0.000616069
-0.0295484
0.000732303
-0.0338288
0.000853637
-0.0385432
0.000977885
-0.0437432
0.00110166
-0.0494815
0.00122239
-0.0558133
0.0013367
-0.0627983
0.00144267
-0.0705016
0.00153788
-0.0789955
0.00162173
-0.0883603
0.00169311
-0.0986855
0.00175256
-0.11007
0.00179989
-0.122623
0.00183621
-0.136462
0.00186168
-0.151719
0.00187735
-0.168531
0.00188304
-0.187046
0.001879
-0.207421
0.00186393
-0.229816
0.00183626
-0.254392
0.0017923
-0.281309
0.00172693
-0.310708
0.00163221
-0.342706
0.00149711
-0.377369
0.00133726
-0.339804
0.0011589
-0.305734
0.00096917
-0.274927
0.000774247
-0.247123
0.000580189
-0.222059
0.000391527
-0.199481
0.000212669
-0.179149
4.64251e-05
-0.160843
-0.000104273
-0.144359
-0.000238009
-0.129514
-0.000353034
-0.116142
-0.000448988
-0.104092
-0.000525006
-0.0932283
-0.000581537
-0.0834307
-0.000618488
-0.0745895
-0.00063701
-0.0666064
-0.000637763
-0.0593935
-0.000622611
-0.0528712
-0.000593027
-0.046968
-0.00055154
-0.0416193
-0.000500336
-0.0367658
-0.000442385
-0.0323528
-0.00038028
-0.0283287
-0.000316946
-0.0246429
-0.000254831
-0.021243
-0.00019615
-0.0180713
-0.000142357
-0.0150583
-9.50044e-05
-0.0121151
-5.36737e-05
-0.00912289
-2.23627e-05
-0.00602323
-5.06884e-06
-0.00317008
-0.000938965
5.51116e-06
-0.000994784
2.34728e-05
-0.00335682
5.58766e-05
-0.00636225
9.86436e-05
-0.00957596
0.000149464
-0.0126582
0.000208107
-0.0157002
0.000274933
-0.018832
0.000349672
-0.0221507
0.000432225
-0.0257319
0.00052157
-0.0296378
0.000616779
-0.033924
0.000715848
-0.0386424
0.000817057
-0.0438444
0.0009178
-0.0495823
0.00101622
-0.0559117
0.00110993
-0.0628922
0.00119775
-0.0705894
0.00127816
-0.079076
0.00135095
-0.0884331
0.00141546
-0.0987502
0.00147225
-0.110127
0.00152127
-0.122672
0.00156337
-0.136504
0.00159857
-0.151754
0.00162743
-0.16856
0.0016495
-0.187068
0.00166435
-0.207436
0.00167016
-0.229822
0.00166445
-0.254387
0.0016428
-0.281287
0.00159901
-0.310664
0.00152409
-0.342631
0.00140609
-0.377252
0.00126148
-0.33966
0.00109943
-0.305572
0.000927926
-0.274756
0.000753287
-0.246949
0.00058108
-0.221887
0.00041521
-0.199315
0.000259205
-0.178993
0.000115137
-0.160699
-1.49472e-05
-0.144229
-0.000130217
-0.129399
-0.000229586
-0.116042
-0.000313024
-0.104008
-0.0003801
-0.0931612
-0.000431322
-0.0833796
-0.000466736
-0.074554
-0.000487273
-0.066586
-0.000493429
-0.0593873
-0.00048655
-0.0528782
-0.000467626
-0.0469869
-0.000438517
-0.0416485
-0.000400806
-0.0368034
-0.000356827
-0.0323969
-0.000308579
-0.028377
-0.00025853
-0.024693
-0.000208653
-0.0212929
-0.000160995
-0.018119
-0.000116938
-0.0151025
-7.74925e-05
-0.0121546
-4.36755e-05
-0.009157
-1.81169e-05
-0.00604912
-4.15181e-06
-0.00318423
-0.000943117
5.44708e-06
-0.00100041
2.39396e-05
-0.00337567
5.77687e-05
-0.00639633
0.000103026
-0.00962147
0.000157251
-0.0127125
0.000219984
-0.0157631
0.000291393
-0.0189035
0.000371103
-0.0222306
0.000458832
-0.0258196
0.000553416
-0.0297326
0.000653698
-0.0340243
0.000757575
-0.0387464
0.000863146
-0.0439499
0.000967772
-0.0496871
0.00106947
-0.0560133
0.00116588
-0.0629887
0.00125574
-0.0706792
0.0013376
-0.079158
0.0014112
-0.0885066
0.00147604
-0.0988151
0.00153263
-0.110183
0.00158104
-0.12272
0.00162207
-0.136545
0.00165587
-0.151788
0.001683
-0.168587
0.00170315
-0.187089
0.00171597
-0.207449
0.00171992
-0.229826
0.00171272
-0.25438
0.00169036
-0.281265
0.00164702
-0.310621
0.00157424
-0.342558
0.00146047
-0.377138
0.00131939
-0.339519
0.00115915
-0.305412
0.000987501
-0.274584
0.000810891
-0.246772
0.000635068
-0.221711
0.00046435
-0.199145
0.000302507
-0.178831
0.000152045
-0.160549
1.52099e-05
-0.144092
-0.000106798
-0.129277
-0.000212803
-0.115936
-0.000302487
-0.103919
-0.000375383
-0.0930883
-0.000431785
-0.0833233
-0.00047176
-0.074514
-0.00049609
-0.0665618
-0.000505322
-0.059378
-0.000500722
-0.0528828
-0.00048338
-0.0470042
-0.000455097
-0.0416768
-0.000417542
-0.036841
-0.00037299
-0.0324415
-0.000323563
-0.0284264
-0.000271756
-0.0247449
-0.000219791
-0.0213448
-0.000169846
-0.018169
-0.000123526
-0.0151487
-8.21894e-05
-0.012196
-4.6488e-05
-0.00919253
-1.94387e-05
-0.006076
-4.48249e-06
-0.00319909
-0.000947599
5.78195e-06
-0.00100627
2.50435e-05
-0.00339512
5.97992e-05
-0.00643118
0.000105484
-0.0096673
0.000159499
-0.0127666
0.000221633
-0.0158253
0.000292155
-0.018974
0.00037076
-0.0223093
0.000457068
-0.0259059
0.000549832
-0.0298254
0.000647706
-0.0341221
0.000748531
-0.0388473
0.000850328
-0.0440517
0.000950609
-0.0497875
0.00104751
-0.0561102
0.00113899
-0.0630803
0.00122397
-0.0707641
0.00130132
-0.0792355
0.00137091
-0.0885761
0.00143248
-0.0988768
0.00148662
-0.110237
0.00153357
-0.122767
0.00157418
-0.136586
0.00160875
-0.151823
0.00163784
-0.168616
0.00166127
-0.187112
0.00167865
-0.207466
0.00168849
-0.229836
0.00168841
-0.25438
0.00167425
-0.281251
0.00163989
-0.310586
0.00157647
-0.342495
0.00147184
-0.377033
0.00133776
-0.339385
0.00118295
-0.305258
0.00101544
-0.274416
0.000841999
-0.246599
0.000668466
-0.221538
0.000499341
-0.198976
0.000338385
-0.17867
0.000188226
-0.160398
5.10534e-05
-0.143955
-7.18375e-05
-0.129154
-0.000179315
-0.115829
-0.000270971
-0.103827
-0.000346375
-0.0930129
-0.000405715
-0.083264
-0.000449052
-0.0744706
-0.000477025
-0.0665339
-0.000490136
-0.0593649
-0.000489456
-0.0528836
-0.000475947
-0.0470177
-0.000451143
-0.0417017
-0.000416566
-0.0368755
-0.000374308
-0.0324838
-0.000326464
-0.0284742
-0.000275504
-0.0247959
-0.000223724
-0.0213966
-0.000173421
-0.0182193
-0.000126415
-0.0151958
-8.41183e-05
-0.0122383
-4.76297e-05
-0.0092291
-1.99005e-05
-0.00610382
-4.58943e-06
-0.00321445
-0.000952189
5.74963e-06
-0.00101213
2.50693e-05
-0.00341466
6.00865e-05
-0.00646634
0.000106466
-0.00971383
0.000161589
-0.0128217
0.000225095
-0.0158889
0.00029704
-0.019046
0.000376962
-0.0223893
0.000464309
-0.0259933
0.000557762
-0.0299189
0.000655882
-0.0342202
0.000756537
-0.0389481
0.000857712
-0.0441528
0.000956993
-0.0498868
0.00105254
-0.0562057
0.00114249
-0.0631703
0.00122583
-0.0708474
0.00130166
-0.0793114
0.00136992
-0.0886444
0.00143052
-0.0989375
0.00148408
-0.110291
0.00153098
-0.122814
0.00157204
-0.136627
0.00160767
-0.151858
0.0016384
-0.168646
0.00166416
-0.187138
0.00168454
-0.207486
0.00169814
-0.229849
0.00170252
-0.254384
0.00169362
-0.281242
0.00166524
-0.310558
0.00160846
-0.342438
0.00151087
-0.376936
0.00138224
-0.339256
0.00123127
-0.305107
0.00106612
-0.274251
0.000893768
-0.246426
0.000720198
-0.221364
0.000550141
-0.198806
0.000387471
-0.178508
0.000235011
-0.160246
9.50219e-05
-0.143815
-3.10475e-05
-0.129028
-0.000142032
-0.115718
-0.000237403
-0.103732
-0.000316706
-0.0929335
-0.000380021
-0.0832008
-0.000427389
-0.0744233
-0.000459338
-0.066502
-0.000476326
-0.0593479
-0.000479282
-0.0528807
-0.000469125
-0.0470279
-0.000447267
-0.0417236
-0.000415214
-0.0369076
-0.000374944
-0.0325241
-0.000328545
-0.0285206
-0.000278414
-0.024846
-0.00022694
-0.0214481
-0.000176484
-0.0182698
-0.000129023
-0.0152432
-8.61168e-05
-0.0122813
-4.88683e-05
-0.00926632
-2.04419e-05
-0.00613222
-4.71012e-06
-0.00323017
-0.000956899
5.95563e-06
-0.00101816
2.5862e-05
-0.00343472
6.17333e-05
-0.0065023
0.000108964
-0.00976117
0.000164862
-0.0128777
0.000229118
-0.0159533
0.000301741
-0.0191186
0.000382224
-0.0224698
0.000469852
-0.0260809
0.000563198
-0.0300123
0.000660658
-0.0343177
0.000760046
-0.0390475
0.000859335
-0.0442521
0.000956291
-0.0499838
0.00104922
-0.0562986
0.00113648
-0.0632576
0.0012172
-0.0709281
0.00129068
-0.0793849
0.00135695
-0.0887106
0.00141607
-0.0989966
0.00146871
-0.110343
0.00151537
-0.122861
0.00155688
-0.136669
0.00159375
-0.151895
0.00162652
-0.168679
0.00165521
-0.187167
0.00167938
-0.207511
0.00169771
-0.229868
0.00170773
-0.254394
0.00170531
-0.281239
0.0016841
-0.310537
0.00163491
-0.342389
0.00154495
-0.376846
0.00142198
-0.339133
0.001275
-0.30496
0.00111236
-0.274089
0.000941327
-0.246255
0.000768068
-0.221191
0.000597535
-0.198635
0.00043371
-0.178344
0.000279572
-0.160092
0.000137435
-0.143673
8.85385e-06
-0.1289
-0.000104988
-0.115604
-0.000203479
-0.103633
-0.000286165
-0.0928508
-0.00035305
-0.0831339
-0.000404162
-0.0743721
-0.000439951
-0.0664662
-0.000460831
-0.059327
-0.000467662
-0.0528739
-0.000461254
-0.0470343
-0.000442904
-0.041742
-0.000413883
-0.0369366
-0.000376033
-0.032562
-0.000331253
-0.0285654
-0.000282008
-0.0248953
-0.000230684
-0.0214995
-0.000179868
-0.0183207
-0.0001317
-0.0152915
-8.79203e-05
-0.0123251
-4.99481e-05
-0.00930452
-2.09506e-05
-0.0061615
-4.86809e-06
-0.00324641
-0.000961767
6.03842e-06
-0.00102428
2.62807e-05
-0.00345514
6.27621e-05
-0.0065389
0.000110801
-0.00980933
0.000167608
-0.0129345
0.000232824
-0.0160186
0.000306333
-0.0191921
0.000387542
-0.0225511
0.000475624
-0.026169
0.000569083
-0.0301058
0.000666235
-0.0344148
0.00076489
-0.0391462
0.000862981
-0.0443502
0.000958336
-0.0500792
0.00104932
-0.0563896
0.00113449
-0.0633428
0.00121313
-0.0710067
0.00128471
-0.0794565
0.00134939
-0.0887753
0.00140739
-0.0990547
0.0014594
-0.110395
0.00150606
-0.122908
0.0015482
-0.136711
0.00158645
-0.151934
0.00162134
-0.168714
0.00165297
-0.187198
0.00168093
-0.207539
0.00170393
-0.229891
0.00171947
-0.25441
0.00172339
-0.281243
0.00170921
-0.310523
0.00166751
-0.342347
0.00158512
-0.376763
0.00146779
-0.339016
0.0013247
-0.304817
0.0011644
-0.273928
0.000994427
-0.246085
0.000821135
-0.221018
0.000649697
-0.198464
0.000484238
-0.178178
0.000327892
-0.159936
0.000183065
-0.143528
5.14225e-05
-0.128768
-6.58009e-05
-0.115487
-0.000167912
-0.103531
-0.000254422
-0.0927643
-0.000325263
-0.0830631
-0.000380432
-0.074317
-0.000420292
-0.0664264
-0.000445199
-0.0593021
-0.000455884
-0.0528633
-0.000453066
-0.0470371
-0.000437901
-0.0417572
-0.000411615
-0.0369629
-0.000375957
-0.0325977
-0.000332834
-0.0286085
-0.000284628
-0.0249436
-0.000233788
-0.0215503
-0.000182939
-0.0183717
-0.00013436
-0.0153401
-9.00053e-05
-0.0123696
-5.12272e-05
-0.00934335
-2.14786e-05
-0.00619131
-4.96087e-06
-0.00326296
-0.000966728
6.22403e-06
-0.00103057
2.70289e-05
-0.00347608
6.43715e-05
-0.00657632
0.000113358
-0.00985841
0.000171141
-0.0129924
0.000237345
-0.0160848
0.00031177
-0.0192666
0.000393715
-0.0226331
0.000482171
-0.0262574
0.000575509
-0.0301992
0.000671912
-0.0345112
0.000769222
-0.0392435
0.000865462
-0.0444464
0.000958646
-0.0501724
0.0010473
-0.0564782
0.00113015
-0.0634257
0.00120659
-0.0710832
0.00127627
-0.0795262
0.00133942
-0.0888384
0.0013964
-0.0991117
0.00144793
-0.110447
0.00149476
-0.122954
0.00153772
-0.136754
0.00157755
-0.151973
0.00161479
-0.168751
0.0016496
-0.187233
0.00168159
-0.207571
0.00170951
-0.229918
0.00173084
-0.254431
0.00174135
-0.281254
0.00173445
-0.310516
0.00170042
-0.342313
0.0016257
-0.376689
0.00151402
-0.338904
0.00137478
-0.304677
0.0012168
-0.27377
0.00104787
-0.245917
0.000874564
-0.220844
0.000702277
-0.198291
0.000535283
-0.178012
0.000376866
-0.159777
0.000229522
-0.143381
9.50127e-05
-0.128634
-2.53773e-05
-0.115366
-0.00013089
-0.103426
-0.000221012
-0.0926742
-0.000295621
-0.0829885
-0.000354693
-0.0742579
-0.000398529
-0.0663826
-0.000427464
-0.0592731
-0.000442147
-0.0528486
-0.000443264
-0.047036
-0.000431851
-0.0417687
-0.000409016
-0.0369857
-0.000376286
-0.0326305
-0.000335379
-0.0286495
-0.00028853
-0.0249905
-0.000238216
-0.0216007
-0.00018718
-0.0184227
-0.000137945
-0.0153894
-9.26274e-05
-0.012415
-5.28773e-05
-0.00938319
-2.22182e-05
-0.00622208
-5.14247e-06
-0.0032801
-0.00097187
6.31402e-06
-0.00103696
2.74607e-05
-0.00349738
6.54118e-05
-0.00661437
0.00011519
-0.00990829
0.000173861
-0.0130511
0.000240982
-0.016152
0.000316226
-0.0193418
0.000398808
-0.0227157
0.000487605
-0.0263462
0.000580921
-0.0302926
0.000676856
-0.0346072
0.000773218
-0.0393399
0.000868018
-0.0445412
0.000959358
-0.0502638
0.00104588
-0.0565647
0.00112653
-0.0635064
0.00120084
-0.0711575
0.00126867
-0.0795941
0.00133031
-0.0889
0.00138627
-0.0991676
0.00143732
-0.110498
0.00148431
-0.123001
0.00152812
-0.136797
0.00156953
-0.152015
0.00160916
-0.168791
0.00164721
-0.187271
0.00168334
-0.207607
0.0017163
-0.229951
0.0017436
-0.254458
0.0017609
-0.281271
0.00176148
-0.310516
0.00173536
-0.342287
0.00166854
-0.376622
0.00156266
-0.338798
0.00142736
-0.304542
0.0012717
-0.273615
0.00110375
-0.245749
0.000930318
-0.220671
0.000757006
-0.198118
0.000588274
-0.177843
0.000427545
-0.159616
0.00027743
-0.143231
0.000139787
-0.128496
1.59658e-05
-0.115243
-9.32101e-05
-0.103317
-0.000187188
-0.0925802
-0.000265791
-0.08291
-0.000328965
-0.0741947
-0.000376945
-0.0663347
-0.000410014
-0.0592401
-0.000428723
-0.0528299
-0.000433663
-0.047031
-0.000425714
-0.0417766
-0.000405888
-0.0370055
-0.000375595
-0.0326608
-0.000336529
-0.0286885
-0.000290887
-0.0250362
-0.000241185
-0.0216504
-0.000190197
-0.0184738
-0.000140582
-0.015439
-9.46505e-05
-0.0124609
-5.41112e-05
-0.00942372
-2.27323e-05
-0.00625345
-5.24153e-06
-0.00329759
-0.000977112
6.51274e-06
-0.00104353
2.82672e-05
-0.00351924
6.71473e-05
-0.00665332
0.000117929
-0.00995915
0.000177615
-0.0131108
0.000245735
-0.0162202
0.000321852
-0.019418
0.000405024
-0.0227989
0.000493944
-0.0264352
0.000586811
-0.0303855
0.000681704
-0.0347021
0.000776521
-0.0394348
0.000869381
-0.0446341
0.000958563
-0.050353
0.00104283
-0.056649
0.00112128
-0.0635848
0.00119356
-0.0712298
0.00125966
-0.0796602
0.00131998
-0.0889604
0.0013751
-0.0992228
0.00142589
-0.110549
0.00147322
-0.123049
0.00151806
-0.136842
0.00156124
-0.152058
0.00160343
-0.168833
0.00164489
-0.187313
0.00168532
-0.207647
0.00172349
-0.22999
0.0017569
-0.254492
0.00178116
-0.281295
0.00178939
-0.310524
0.00177131
-0.342269
0.00171249
-0.376563
0.00161249
-0.338698
0.00148117
-0.304411
0.00132787
-0.273462
0.00116093
-0.245582
0.000987416
-0.220497
0.000813148
-0.197944
0.00064276
-0.177672
0.000479835
-0.159454
0.000327086
-0.143078
0.000186472
-0.128356
5.94018e-05
-0.115115
-5.32355e-05
-0.103204
-0.000150856
-0.0924826
-0.000233235
-0.0828276
-0.000300293
-0.0741276
-0.000352222
-0.0662828
-0.000389275
-0.059203
-0.000411952
-0.0528073
-0.000420794
-0.0470222
-0.000416631
-0.0417808
-0.000400371
-0.0370218
-0.000373294
-0.0326879
-0.000336881
-0.028725
-0.000293143
-0.0250799
-0.00024444
-0.0216991
-0.000193643
-0.0185246
-0.000143622
-0.0154891
-9.69024e-05
-0.0125077
-5.55503e-05
-0.00946526
-2.34131e-05
-0.00628581
-5.43553e-06
-0.00331569
-0.000982547
6.6076e-06
-0.00105021
2.87197e-05
-0.00354149
6.82317e-05
-0.00669293
0.000119816
-0.0100108
0.000180396
-0.0131714
0.00024942
-0.0162893
0.000326333
-0.0194949
0.000410096
-0.0228827
0.000499283
-0.0265244
0.000591994
-0.0304782
0.000686208
-0.0347963
0.000779813
-0.0395284
0.000870962
-0.0447252
0.000958078
-0.0504401
0.00104008
-0.056731
0.00111628
-0.063661
0.00118646
-0.0712999
0.00125076
-0.0797245
0.00130968
-0.0890193
0.00136391
-0.099277
0.00141436
-0.110599
0.00146201
-0.123096
0.00150786
-0.136888
0.00155282
-0.152103
0.00159761
-0.168878
0.00164256
-0.187358
0.0016874
-0.207692
0.00173093
-0.230033
0.00177066
-0.254531
0.0018021
-0.281327
0.00181822
-0.310541
0.00180846
-0.342259
0.00175787
-0.376512
0.0016639
-0.338604
0.00153662
-0.304283
0.00138567
-0.273311
0.00121966
-0.245416
0.00104594
-0.220324
0.000870554
-0.197768
0.000698318
-0.1775
0.00053297
-0.159288
0.00037735
-0.142922
0.000233513
-0.128212
0.000102938
-0.114985
-1.34243e-05
-0.103088
-0.000114949
-0.0923811
-0.000201364
-0.0827412
-0.000272564
-0.0740564
-0.000328692
-0.0662266
-0.000369961
-0.0591617
-0.000396795
-0.0527805
-0.000409659
-0.0470093
-0.000409248
-0.0417813
-0.00039634
-0.0370347
-0.000372054
-0.0327122
-0.00033779
-0.0287592
-0.000295479
-0.0251223
-0.000247535
-0.0217471
-0.000196887
-0.0185753
-0.000146518
-0.0155395
-9.91875e-05
-0.0125551
-5.69663e-05
-0.00950753
-2.40062e-05
-0.00631883
-5.54662e-06
-0.00333418
-0.000988094
6.8007e-06
-0.00105706
2.95018e-05
-0.00356429
6.99168e-05
-0.00673341
0.000122501
-0.0100635
0.000184097
-0.013233
0.00025406
-0.0163593
0.000331678
-0.0195725
0.00041575
-0.0229668
0.00050473
-0.0266133
0.0005967
-0.0305702
0.000689661
-0.0348892
0.000781594
-0.0396204
0.000870773
-0.0448144
0.000955745
-0.0505251
0.00103554
-0.0568108
0.00110961
-0.0637351
0.00117787
-0.0713682
0.00124056
-0.0797872
0.00129827
-0.089077
0.00135179
-0.0993306
0.0014021
-0.11065
0.00145023
-0.123145
0.00149726
-0.136935
0.00154416
-0.15215
0.0015917
-0.168926
0.00164028
-0.187406
0.00168968
-0.207741
0.00173874
-0.230082
0.00178493
-0.254577
0.00182374
-0.281366
0.00184793
-0.310565
0.00184665
-0.342258
0.00180444
-0.37647
0.00171659
-0.338516
0.00159342
-0.30416
0.00144485
-0.273162
0.0012798
-0.245251
0.00110588
-0.22015
0.000929384
-0.197592
0.000755323
-0.177326
0.000587596
-0.159121
0.000429163
-0.142764
0.000282181
-0.128065
0.0001482
-0.114851
2.82359e-05
-0.102968
-7.70481e-05
-0.0922758
-0.000167337
-0.0826509
-0.000242495
-0.0739813
-0.000302627
-0.0661665
-0.00034792
-0.0591164
-0.00037875
-0.0527497
-0.000395546
-0.0469925
-0.000398938
-0.0417779
-0.00038966
-0.037044
-0.000368729
-0.0327332
-0.000337398
-0.0287906
-0.000297404
-0.0251623
-0.000250956
-0.0217936
-0.000200859
-0.0186254
-0.000150241
-0.0155902
-0.000102087
-0.0126033
-5.88614e-05
-0.00955083
-2.48716e-05
-0.00635291
-5.75808e-06
-0.00335335
-0.000993852
6.89475e-06
-0.00106403
2.99505e-05
-0.00358747
7.09929e-05
-0.00677455
0.000124383
-0.0101169
0.000186872
-0.0132956
0.000257727
-0.0164302
0.000336122
-0.0196509
0.000420736
-0.0230515
0.00050987
-0.0267025
0.000601473
-0.0306618
0.000693484
-0.0349813
0.000783913
-0.0397108
0.00087113
-0.0449016
0.000953852
-0.0506079
0.0010313
-0.0568882
0.00110308
-0.0638069
0.00116926
-0.0714344
0.00123021
-0.0798482
0.00128662
-0.0891334
0.00133936
-0.0993833
0.00138947
-0.1107
0.00143807
-0.123193
0.00148627
-0.136983
0.00153513
-0.152199
0.00158548
-0.168976
0.00163778
-0.187459
0.00169187
-0.207795
0.00174663
-0.230137
0.00179952
-0.25463
0.00184594
-0.281412
0.00187848
-0.310597
0.00188597
-0.342266
0.00185241
-0.376437
0.00177087
-0.338435
0.0016519
-0.304041
0.00150573
-0.273016
0.00134159
-0.245086
0.0011674
-0.219976
0.000989678
-0.197414
0.000813649
-0.17715
0.000643378
-0.15895
0.000481957
-0.142602
0.000331643
-0.127914
0.000194064
-0.114713
7.02943e-05
-0.102844
-3.89593e-05
-0.0921666
-0.000133343
-0.0825566
-0.000212693
-0.0739019
-0.000277077
-0.0661022
-0.000326649
-0.0590669
-0.00036173
-0.0527146
-0.000382687
-0.0469716
-0.000390047
-0.0417706
-0.000384423
-0.0370496
-0.000366658
-0.032751
-0.000337859
-0.0288194
-0.000299626
-0.0252006
-0.000254148
-0.021839
-0.000204284
-0.0186753
-0.000153319
-0.0156411
-0.000104494
-0.0126521
-6.03539e-05
-0.00959494
-2.55046e-05
-0.00638772
-5.88304e-06
-0.00337295
-0.000999735
7.14626e-06
-0.00107122
3.09661e-05
-0.00361137
7.31135e-05
-0.00681675
0.000127528
-0.0101714
0.000190879
-0.0133589
0.000262406
-0.0165017
0.000341188
-0.0197297
0.000425812
-0.0231361
0.000514517
-0.0267912
0.000605238
-0.0307526
0.000695927
-0.0350719
0.000784652
-0.0397995
0.000869856
-0.0449868
0.000950382
-0.0506884
0.00102559
-0.0569634
0.00109524
-0.0638766
0.00115952
-0.0714987
0.00121891
-0.0799076
0.00127419
-0.0891887
0.0013263
-0.0994354
0.00137637
-0.11075
0.00142555
-0.123242
0.00147505
-0.137033
0.00152599
-0.15225
0.00157927
-0.169029
0.00163541
-0.187515
0.00169433
-0.207854
0.00175494
-0.230198
0.00181469
-0.25469
0.00186891
-0.281466
0.00191001
-0.310638
0.00192647
-0.342282
0.00190175
-0.376412
0.00182666
-0.33836
0.00171198
-0.303927
0.00156828
-0.272872
0.00140511
-0.244923
0.00123068
-0.219801
0.00105177
-0.197235
0.000873813
-0.176972
0.000701056
-0.158778
0.000536718
-0.142438
0.000383165
-0.127761
0.000242097
-0.114572
0.000114658
-0.102716
1.59144e-06
-0.0920535
-9.67035e-05
-0.0824583
-0.000180037
-0.0738186
-0.000248442
-0.0660338
-0.00030204
-0.0590133
-0.000341114
-0.0526756
-0.000365984
-0.0469467
-0.000377128
-0.0417594
-0.000375083
-0.0370517
-0.000360644
-0.0327654
-0.000334817
-0.0288452
-0.00029909
-0.0252363
-0.000255479
-0.0218827
-0.000206764
-0.0187241
-0.000156196
-0.0156918
-0.000107029
-0.0127014
-6.2155e-05
-0.00964001
-2.63879e-05
-0.00642372
-6.13118e-06
-0.00339334
-0.00100587
7.27626e-06
-0.00107856
3.15929e-05
-0.00363581
7.46404e-05
-0.00685989
0.000130186
-0.010227
0.000194762
-0.0134236
0.000267482
-0.0165745
0.000347237
-0.0198095
0.000432413
-0.0232213
0.000521066
-0.0268799
0.000611034
-0.0308426
0.000700286
-0.0351612
0.000787012
-0.0398863
0.000869846
-0.0450696
0.000947833
-0.0507664
0.00102051
-0.0570361
0.0010878
-0.0639439
0.00114999
-0.0715608
0.00120768
-0.0799653
0.00126172
-0.0892427
0.00131312
-0.0994868
0.00136306
-0.1108
0.00141279
-0.123292
0.00146357
-0.137084
0.00151658
-0.152303
0.00157282
-0.169085
0.00163288
-0.187575
0.00169674
-0.207918
0.00176335
-0.230264
0.00183017
-0.254757
0.00189243
-0.281529
0.00194237
-0.310688
0.00196808
-0.342308
0.00195246
-0.376396
0.00188397
-0.338291
0.00177366
-0.303816
0.00163241
-0.272731
0.00147013
-0.244761
0.00129532
-0.219626
0.00111505
-0.197055
0.00093498
-0.176792
0.000759524
-0.158602
0.000592046
-0.142271
0.000435025
-0.127604
0.000290239
-0.114428
0.000158892
-0.102585
4.17715e-05
-0.0919364
-6.06896e-05
-0.0823558
-0.00014828
-0.073731
-0.000221004
-0.0659611
-0.000278963
-0.0589553
-0.0003224
-0.0526321
-0.000351591
-0.0469175
-0.000366932
-0.0417441
-0.000368862
-0.0370498
-0.000358007
-0.0327763
-0.000335182
-0.0288681
-0.000301651
-0.0252699
-0.000259297
-0.0219251
-0.000210875
-0.0187726
-0.000159811
-0.0157429
-0.000109785
-0.0127515
-6.38167e-05
-0.00968601
-2.70706e-05
-0.00646051
-6.25692e-06
-0.00341418
-0.00101212
7.41469e-06
-0.00108602
3.21179e-05
-0.00366059
7.56931e-05
-0.00690352
0.000131856
-0.0102832
0.000197121
-0.0134889
0.000270461
-0.0166479
0.000350596
-0.0198897
0.000435765
-0.0233065
0.00052392
-0.026968
0.000612884
-0.0309315
0.000700656
-0.035249
0.000785526
-0.0399712
0.00086625
-0.0451504
0.000942015
-0.0508422
0.00101249
-0.0571066
0.00107772
-0.0640091
0.00113812
-0.0716212
0.00119437
-0.0800215
0.0012474
-0.0892957
0.0012983
-0.0995377
0.00134832
-0.11085
0.00139878
-0.123343
0.00145101
-0.137136
0.00150628
-0.152358
0.00156566
-0.169145
0.00162984
-0.187639
0.00169886
-0.207987
0.00177172
-0.230337
0.00184586
-0.254831
0.00191646
-0.281599
0.00197553
-0.310748
0.00201081
-0.342343
0.00200457
-0.37639
0.0019429
-0.33823
0.00183711
-0.303711
0.00169842
-0.272592
0.0015371
-0.2446
0.00136199
-0.219451
0.00118042
-0.196874
0.000998277
-0.17661
0.000820178
-0.158424
0.000649626
-0.1421
0.000489211
-0.127443
0.000340798
-0.114279
0.000205653
-0.10245
8.46115e-05
-0.0918153
-2.18575e-05
-0.0822494
-0.000113516
-0.0736394
-0.000190338
-0.0658843
-0.000252403
-0.0588933
-0.000299915
-0.0525846
-0.000333116
-0.0468843
-0.000352339
-0.0417249
-0.000357957
-0.0370442
-0.0003505
-0.0327838
-0.000330693
-0.0288879
-0.000299699
-0.0253009
-0.000259277
-0.0219655
-0.00021207
-0.0188198
-0.000161516
-0.0157935
-0.000111368
-0.0128016
-6.50228e-05
-0.00973244
-2.76934e-05
-0.00649793
-6.42083e-06
-0.0034355
-0.00101854
7.64997e-06
-0.00109373
3.31816e-05
-0.00368624
7.80948e-05
-0.00694851
0.00013559
-0.0103408
0.000201997
-0.0135553
0.000276228
-0.0167221
0.000356879
-0.0199703
0.000442063
-0.0233917
0.000529634
-0.0270556
0.0006174
-0.0310193
0.00070342
-0.035335
0.000786116
-0.0400539
0.000864397
-0.0452286
0.000937626
-0.0509154
0.00100562
-0.0571746
0.00106855
-0.064072
0.00112694
-0.0716796
0.00118157
-0.0800761
0.00123344
-0.0893476
0.00128371
-0.099588
0.00133371
-0.1109
0.00138481
-0.123394
0.00143844
-0.13719
0.00149594
-0.152415
0.00155848
-0.169207
0.00162682
-0.187707
0.00170109
-0.208062
0.00178033
-0.230416
0.00186198
-0.254913
0.00194115
-0.281678
0.00200961
-0.310816
0.00205472
-0.342388
0.00205811
-0.376394
0.00200337
-0.338175
0.0019021
-0.303609
0.00176591
-0.272456
0.00160541
-0.244439
0.00142978
-0.219276
0.00124666
-0.19669
0.00106218
-0.176426
0.000881157
-0.158243
0.000707244
-0.141926
0.000543151
-0.127279
0.000390829
-0.114127
0.000251611
-0.102311
0.000126375
-0.0916901
1.56235e-05
-0.0821386
-8.03867e-05
-0.0735434
-0.000161611
-0.065803
-0.000228117
-0.0588268
-0.000280089
-0.0525327
-0.000317741
-0.0468467
-0.000341357
-0.0417013
-0.000351241
-0.0370343
-0.000347797
-0.0327873
-0.000331567
-0.0289041
-0.000303462
-0.025329
-0.000264998
-0.022004
-0.000218646
-0.0188661
-0.000167855
-0.0158442
-0.000116642
-0.0128529
-6.84808e-05
-0.00978053
-2.92007e-05
-0.00653713
-6.73918e-06
-0.00345792
-0.00102528
7.76881e-06
-0.00110154
3.36323e-05
-0.00371217
7.90263e-05
-0.00699396
0.000137177
-0.010399
0.000204371
-0.0136225
0.000279318
-0.0167971
0.000360396
-0.0200514
0.000445533
-0.0234769
0.000532484
-0.0271426
0.000619046
-0.0311059
0.000703356
-0.0354193
0.000783963
-0.0401345
0.000859934
-0.0453046
0.000930783
-0.0509863
0.000996467
-0.0572403
0.00105728
-0.0641328
0.00111385
-0.0717362
0.00116703
-0.0801293
0.00121789
-0.0893985
0.00126769
-0.0996378
0.0013178
-0.11095
0.00136969
-0.123446
0.00142485
-0.137245
0.00148473
-0.152475
0.00155059
-0.169273
0.00162328
-0.18778
0.00170301
-0.208141
0.00178889
-0.230502
0.00187835
-0.255002
0.0019664
-0.281766
0.00204463
-0.310894
0.00209995
-0.342443
0.00211334
-0.376407
0.00206584
-0.338128
0.00196935
-0.303513
0.00183584
-0.272323
0.0016763
-0.24428
0.00150029
-0.2191
0.00131573
-0.196506
0.00112903
-0.176239
0.000945192
-0.158059
0.000768031
-0.141749
0.000600379
-0.127112
0.000444279
-0.113971
0.000301133
-0.102168
0.000171865
-0.0915609
5.70175e-05
-0.0820238
-4.3128e-05
-0.0734432
-0.000128504
-0.0657177
-0.000199158
-0.0587561
-0.00025525
-0.0524766
-0.00029697
-0.046805
-0.000324564
-0.0416737
-0.000338273
-0.0370206
-0.000338422
-0.0327871
-0.000325435
-0.0289171
-0.00030007
-0.0253544
-0.000263656
-0.0220404
-0.000218542
-0.0189113
-0.000168225
-0.0158946
-0.000116905
-0.0129042
-6.86697e-05
-0.00982894
-2.93633e-05
-0.00657665
-6.82301e-06
-0.00348058
-0.00103211
8.01341e-06
-0.00110961
3.47266e-05
-0.003739
8.14422e-05
-0.00704075
0.000140844
-0.0104585
0.000209045
-0.0136908
0.000284683
-0.0168728
0.000366007
-0.0201328
0.000450834
-0.0235617
0.000536859
-0.0272286
0.000621908
-0.0311909
0.000704218
-0.0355016
0.000782482
-0.0402127
0.000855927
-0.0453781
0.000924222
-0.0510546
0.000987454
-0.0573035
0.00104603
-0.0641914
0.00110068
-0.0717908
0.00115232
-0.080181
0.00120212
-0.0894483
0.00125138
-0.0996871
0.00130156
-0.111
0.00135421
-0.123498
0.0014109
-0.137301
0.00147318
-0.152538
0.0015424
-0.169342
0.00161954
-0.187857
0.00170487
-0.208227
0.00179756
-0.230595
0.00189506
-0.2551
0.00199228
-0.281864
0.00208057
-0.310983
0.00214642
-0.342509
0.00217007
-0.376431
0.00212997
-0.338087
0.00203829
-0.303421
0.0019074
-0.272192
0.00174871
-0.244121
0.00157213
-0.218923
0.00138593
-0.19632
0.00119676
-0.17605
0.00100985
-0.157872
0.000829187
-0.141568
0.000657728
-0.12694
0.000497609
-0.113811
0.000350302
-0.10202
0.000216778
-0.0914273
9.76151e-05
-0.0819047
-6.88619e-06
-0.0733387
-9.66398e-05
-0.0656279
-0.000171684
-0.0586811
-0.000232164
-0.0524161
-0.00027825
-0.0467589
-0.000310157
-0.0416418
-0.000328083
-0.0370027
-0.000332264
-0.0327829
-0.000323009
-0.0289264
-0.000300876
-0.0253765
-0.000266981
-0.0220743
-0.000223431
-0.0189549
-0.000173571
-0.0159445
-0.000121759
-0.0129561
-7.20562e-05
-0.00987864
-3.09025e-05
-0.00661781
-7.15395e-06
-0.00350433
-0.00103926
8.16172e-06
-0.00111781
3.53066e-05
-0.0037662
8.26543e-05
-0.00708814
0.000142825
-0.0105187