/*--------------------------------*- C++ -*----------------------------------*\
| =========                 |                                                 |
| \\      /  F ield         | OpenFOAM: The Open Source CFD Toolbox           |
|  \\    /   O peration     | Version:  2412                                  |
|   \\  /    A nd           | Website:  www.openfoam.com                      |
|    \\/     M anipulation  |                                                 |
\*---------------------------------------------------------------------------*/
FoamFile
{
    version     2.0;
    format      ascii;
    arch        "LSB;label=32;scalar=64";
    class       volVectorField;
    location    "710";
    object      U;
}
// * * * * * * * * * * * * * * * * * * * * * * * * * * * * * * * * * * * * * //

dimensions      [0 1 -1 0 0 0 0];

internalField   nonuniform List<vector> 
32240
(
(0.025909 -4.20076e-07 0)
(0.0791517 -3.76925e-06 0)
(0.13589 -1.10786e-05 0)
(0.185463 -2.15319e-05 0)
(0.222193 -3.36023e-05 0)
(0.249622 -4.70527e-05 0)
(0.271132 -6.22098e-05 0)
(0.28876 -7.9188e-05 -9.94575e-26)
(0.30373 -9.80397e-05 -8.83637e-26)
(0.316778 -0.000118715 1.57718e-25)
(0.328351 -0.000141066 0)
(0.338731 -0.000164826 0)
(0.348092 -0.000189629 1.2848e-25)
(0.356547 -0.000215018 -1.19876e-25)
(0.364175 -0.000240482 0)
(0.371036 -0.000265508 0)
(0.377182 -0.000289623 2.10946e-25)
(0.382664 -0.000312429 -1.9756e-25)
(0.387537 -0.000333634 0)
(0.391853 -0.000353063 0)
(0.395663 -0.000370636 0)
(0.399017 -0.000386335 0)
(0.401953 -0.000400183 -1.80283e-25)
(0.404507 -0.000412185 3.53008e-25)
(0.406702 -0.00042231 -1.73846e-25)
(0.408551 -0.000430438 -1.83343e-25)
(0.410056 -0.000436304 1.79327e-25)
(0.411207 -0.000439468 0)
(0.411978 -0.000439184 0)
(0.412331 -0.000434419 0)
(0.412206 -0.000423558 0)
(0.411522 -0.000404464 0)
(0.410166 -0.000374292 0)
(0.408187 -0.000334319 1.13973e-25)
(0.40589 -0.000290683 2.28497e-27)
(0.403376 -0.000245567 1.1887e-25)
(0.400706 -0.000200548 -2.3401e-25)
(0.397915 -0.000156849 0)
(0.395022 -0.000115363 0)
(0.392031 -7.67441e-05 0)
(0.388936 -4.14343e-05 0)
(0.385723 -9.73919e-06 0)
(0.382373 1.81631e-05 0)
(0.378858 4.21676e-05 0)
(0.375145 6.22474e-05 0)
(0.371198 7.84243e-05 0)
(0.36697 9.07752e-05 0)
(0.362411 9.94182e-05 0)
(0.357463 0.000104521 -3.40773e-25)
(0.352059 0.000106307 3.64883e-25)
(0.346121 0.000105053 1.94894e-25)
(0.339562 0.0001011 -2.11019e-25)
(0.332275 9.48379e-05 0)
(0.32413 8.67145e-05 0)
(0.314959 7.72107e-05 0)
(0.304537 6.68343e-05 0)
(0.292543 5.60829e-05 0)
(0.278498 4.5435e-05 0)
(0.261654 3.53016e-05 0)
(0.240799 2.60184e-05 0)
(0.213954 1.77606e-05 1.93448e-25)
(0.17788 1.05884e-05 -2.56887e-25)
(0.129646 4.93415e-06 0)
(0.0753722 1.42897e-06 0)
(0.0246673 3.85656e-08 0)
(0.0261771 7.44318e-08 -1.62002e-25)
(0.0799247 -2.87075e-06 2.47096e-25)
(0.137113 -1.07411e-05 0)
(0.186903 -2.32875e-05 0)
(0.223719 -3.88257e-05 -1.09194e-24)
(0.251206 -5.68526e-05 8.51292e-25)
(0.272758 -7.76805e-05 -6.96314e-25)
(0.29041 -0.000101352 5.91669e-25)
(0.305383 -0.00012782 0)
(0.318407 -0.000156895 0)
(0.32993 -0.000188242 0)
(0.340231 -0.000221364 -7.8092e-25)
(0.349488 -0.000255613 7.23457e-25)
(0.35782 -0.00029022 6.72099e-25)
(0.365308 -0.000324352 -6.262e-25)
(0.372022 -0.000357185 1.16457e-24)
(0.37802 -0.00038798 -2.17186e-24)
(0.383362 -0.000416136 1.01407e-24)
(0.388105 -0.000441226 9.43582e-25)
(0.392305 -0.000463006 -8.87158e-25)
(0.396016 -0.000481378 0)
(0.399284 -0.000496367 0)
(0.40215 -0.000508064 7.42072e-25)
(0.404645 -0.000516602 -1.42057e-24)
(0.406791 -0.000522096 5.07499e-27)
(0.408597 -0.000524608 6.60672e-25)
(0.410064 -0.000524084 0)
(0.411179 -0.000520311 0)
(0.411915 -0.00051282 0)
(0.41223 -0.000500813 -3.01024e-25)
(0.412062 -0.000483011 2.10393e-27)
(0.411328 -0.00045758 2.98734e-25)
(0.409914 -0.000421893 0)
(0.407874 -0.000376546 2.93241e-25)
(0.40552 -0.000326547 -5.8281e-25)
(0.402954 -0.00027356 -2.89598e-25)
(0.400239 -0.000219227 -3.13538e-28)
(0.397413 -0.00016506 1.16392e-24)
(0.394493 -0.000112358 1.89258e-27)
(0.391484 -6.22167e-05 -5.94382e-25)
(0.388382 -1.55123e-05 6.09201e-25)
(0.385174 2.70602e-05 -6.21828e-25)
(0.381841 6.49869e-05 -6.45442e-25)
(0.378355 9.78975e-05 6.66384e-25)
(0.374688 0.000125559 7.00202e-25)
(0.3708 0.000147845 -7.32001e-25)
(0.366648 0.000164733 7.77886e-25)
(0.362181 0.000176296 -1.65051e-24)
(0.357342 0.000182698 8.8092e-25)
(0.352062 0.000184196 0)
(0.346262 0.000181145 0)
(0.33985 0.000173999 -5.58239e-25)
(0.332715 0.000163309 6.09786e-25)
(0.32472 0.000149717 6.72597e-25)
(0.315692 0.00013393 -7.47348e-25)
(0.305396 0.000116706 -8.40654e-25)
(0.293503 9.88064e-05 9.60148e-25)
(0.279528 8.09673e-05 5.59479e-25)
(0.262717 6.38327e-05 -6.70479e-25)
(0.241861 4.79184e-05 0)
(0.214981 3.3598e-05 5.36825e-25)
(0.17884 2.07849e-05 -7.13692e-25)
(0.130439 1.0022e-05 0)
(0.0758491 2.99099e-06 0)
(0.0248229 1.50868e-07 0)
(0.0262689 -1.93328e-07 0)
(0.0802371 -3.20669e-06 0)
(0.137661 -1.06123e-05 -1.41062e-24)
(0.187589 -2.18974e-05 1.11081e-24)
(0.224477 -3.55476e-05 0)
(0.252016 -5.11798e-05 0)
(0.273603 -6.9067e-05 0)
(0.291275 -8.92353e-05 0)
(0.30625 -0.000111637 1.58561e-24)
(0.319259 -0.000136115 -1.4201e-24)
(0.330751 -0.000162393 1.29325e-24)
(0.341006 -0.000190063 -1.18885e-24)
(0.350203 -0.000218598 1.10086e-24)
(0.358463 -0.000247388 -1.02235e-24)
(0.365874 -0.000275801 0)
(0.372507 -0.000303235 0)
(0.378426 -0.000329181 1.65455e-24)
(0.383694 -0.000353253 -1.54611e-24)
(0.38837 -0.000375196 1.4481e-24)
(0.392512 -0.000394875 -2.72265e-24)
(0.396174 -0.000412251 2.57065e-24)
(0.399401 -0.000427365 -1.22012e-24)
(0.402234 -0.000440287 0)
(0.404702 -0.000451093 0)
(0.406825 -0.000459812 0)
(0.408612 -0.000466396 1.05337e-24)
(0.410063 -0.000470651 -1.03123e-24)
(0.411163 -0.000472196 0)
(0.411882 -0.000470358 -1.00533e-24)
(0.412179 -0.000464099 4.99138e-25)
(0.411989 -0.000451861 -4.61228e-28)
(0.411229 -0.000431453 2.49491e-25)
(0.409784 -0.000399914 -4.66698e-28)
(0.40771 -0.000357955 -2.51194e-25)
(0.405325 -0.000311303 9.99011e-25)
(0.402731 -0.000262125 -4.98825e-25)
(0.399992 -0.00021221 0)
(0.397146 -0.000163024 0)
(0.394212 -0.000115716 -1.01834e-24)
(0.391194 -7.118e-05 1.02896e-24)
(0.388088 -3.00699e-05 1.05085e-24)
(0.384883 7.14055e-06 3.10407e-27)
(0.381559 4.01378e-05 -1.10338e-24)
(0.37809 6.87229e-05 0)
(0.374447 9.27992e-05 -1.19169e-24)
(0.370591 0.000112346 -2.72049e-27)
(0.366481 0.000127411 1.31269e-24)
(0.362065 0.000138097 0)
(0.357286 0.000144562 0)
(0.352075 0.000147016 -1.59658e-24)
(0.346353 0.000145724 3.44632e-24)
(0.340025 0.000141014 -9.35312e-25)
(0.33298 0.000133283 4.79008e-28)
(0.325078 0.000123008 -2.25867e-24)
(0.316139 0.000110731 -1.22227e-28)
(0.305926 9.70529e-05 1.41525e-24)
(0.294105 8.25949e-05 0)
(0.280186 6.79762e-05 9.44618e-25)
(0.263412 5.3761e-05 -1.13319e-24)
(0.242571 4.04223e-05 0)
(0.215681 2.82844e-05 -9.08807e-25)
(0.179498 1.73898e-05 1.20869e-24)
(0.130981 8.36064e-06 7.57519e-25)
(0.0761787 2.48647e-06 -1.2056e-24)
(0.0249323 1.03914e-07 2.62429e-25)
(0.0264491 -1.06165e-07 0)
(0.0807654 -3.23272e-06 0)
(0.138508 -1.10307e-05 -2.01283e-24)
(0.188594 -2.30866e-05 1.58189e-24)
(0.225547 -3.77498e-05 0)
(0.253127 -5.464e-05 -1.8526e-24)
(0.274739 -7.39828e-05 3.02602e-24)
(0.292421 -9.5762e-05 -1.28455e-24)
(0.307389 -0.000119888 0)
(0.320374 -0.000146155 0)
(0.331823 -0.000174233 0)
(0.342015 -0.000203659 -1.67584e-24)
(0.351134 -0.000233861 -3.63928e-28)
(0.359303 -0.000264191 1.43293e-24)
(0.366615 -0.000293985 2.66153e-24)
(0.373148 -0.000322625 -2.47555e-24)
(0.37897 -0.000349589 0)
(0.384148 -0.000374483 0)
(0.388742 -0.00039705 0)
(0.392813 -0.000417167 0)
(0.396413 -0.00043481 0)
(0.399589 -0.000450026 0)
(0.402378 -0.000462894 -1.62334e-24)
(0.404809 -0.0004735 1.56185e-24)
(0.406901 -0.000481884 0)
(0.408661 -0.000488013 1.47007e-24)
(0.410087 -0.000491721 -1.44072e-24)
(0.411162 -0.000492663 0)
(0.411856 -0.000490218 -1.40286e-24)
(0.412125 -0.000483415 5.25502e-28)
(0.411905 -0.000470782 1.39177e-24)
(0.411109 -0.000450238 0)
(0.40962 -0.000418926 0)
(0.407502 -0.000377276 0)
(0.405075 -0.000330591 1.38755e-24)
(0.402444 -0.000280895 2.0984e-27)
(0.399673 -0.000229971 -1.38387e-24)
(0.396801 -0.000179341 1.39155e-24)
(0.393847 -0.000130245 2.81607e-27)
(0.390816 -8.3671e-05 -2.8329e-24)
(0.387705 -4.03742e-05 1.43785e-24)
(0.384501 -9.16088e-07 0)
(0.381187 3.43107e-05 0)
(0.377737 6.5045e-05 0)
(0.374121 9.1139e-05 -1.62216e-24)
(0.370302 0.000112531 -2.8074e-27)
(0.366239 0.000129235 1.78272e-24)
(0.361881 0.000141333 0)
(0.357171 0.000148965 0)
(0.35204 0.000152334 -2.16321e-24)
(0.346409 0.000151705 2.33469e-24)
(0.340183 0.000147412 1.2703e-24)
(0.333245 0.000139865 -2.78289e-24)
(0.325452 0.000129547 1.53715e-24)
(0.316622 0.000117012 0)
(0.306508 0.000102874 1.93697e-24)
(0.294772 8.77832e-05 -2.22197e-24)
(0.280917 7.24037e-05 1.30026e-24)
(0.264182 5.73591e-05 -1.5632e-24)
(0.243355 4.31851e-05 0)
(0.216457 3.02831e-05 0)
(0.180246 1.87013e-05 0)
(0.131617 9.02454e-06 -1.05133e-24)
(0.0765663 2.70305e-06 1.67689e-24)
(0.0250596 1.36478e-07 -3.6541e-25)
(0.0265887 -1.62012e-07 0)
(0.08119 -3.49171e-06 1.39719e-24)
(0.139208 -1.16597e-05 -1.29497e-24)
(0.189455 -2.40589e-05 0)
(0.226492 -3.89716e-05 0)
(0.254126 -5.59943e-05 0)
(0.275769 -7.54079e-05 0)
(0.293464 -9.72217e-05 -3.30147e-24)
(0.308426 -0.00012134 2.88583e-24)
(0.321386 -0.000147527 0)
(0.33279 -0.000175412 -2.33928e-24)
(0.342921 -0.000204488 2.14222e-24)
(0.351965 -0.000234156 3.94964e-24)
(0.360049 -0.000263772 4.48319e-28)
(0.367271 -0.000292702 1.9388e-28)
(0.373712 -0.00032038 -3.1465e-24)
(0.379445 -0.000346349 2.92833e-24)
(0.38454 -0.000370282 -2.73273e-24)
(0.389061 -0.000391984 2.55809e-24)
(0.393068 -0.000411379 -2.40573e-24)
(0.396613 -0.000428482 0)
(0.399744 -0.000443376 0)
(0.402495 -0.00045617 0)
(0.404896 -0.000466971 1.98795e-24)
(0.406962 -0.000475838 -1.92594e-24)
(0.4087 -0.000482755 0)
(0.410105 -0.00048756 0)
(0.411161 -0.000489902 0)
(0.411835 -0.00048914 1.7962e-24)
(0.41208 -0.00048425 -1.78632e-24)
(0.411833 -0.00047368 0)
(0.411004 -0.000455211 0)
(0.409477 -0.000425805 -4.38051e-25)
(0.407316 -0.000385575 1.34077e-24)
(0.40485 -0.000339807 -2.67113e-24)
(0.402184 -0.000290659 1.77564e-24)
(0.399383 -0.000240009 1.77938e-24)
(0.396485 -0.000189443 -1.78232e-24)
(0.393512 -0.000140248 0)
(0.390468 -9.34395e-05 1.81699e-24)
(0.387351 -4.97916e-05 -3.68667e-24)
(0.384148 -9.87582e-06 3.76248e-24)
(0.380842 2.59084e-05 -1.92873e-24)
(0.377407 5.72942e-05 0)
(0.373816 8.41279e-05 0)
(0.370031 0.000106342 0)
(0.366012 0.000123945 2.27544e-24)
(0.361708 0.000137003 -2.40682e-24)
(0.357062 0.000145642 0)
(0.352006 0.000150041 -2.75646e-24)
(0.34646 0.000150436 2.97716e-24)
(0.340327 0.00014712 0)
(0.333489 0.000140451 -1.77825e-24)
(0.325799 0.000130862 -3.63929e-28)
(0.317072 0.000118865 2.19777e-24)
(0.307056 0.000105051 2.48611e-24)
(0.295407 9.00694e-05 -2.85648e-24)
(0.281621 7.45997e-05 0)
(0.264933 5.93016e-05 2.01506e-24)
(0.244123 4.47635e-05 -2.50744e-24)
(0.21721 3.1433e-05 -3.24557e-24)
(0.180942 1.94162e-05 6.48435e-24)
(0.132182 9.37879e-06 -2.71824e-24)
(0.0769094 2.80943e-06 7.23321e-25)
(0.0251738 1.31763e-07 -4.732e-25)
(0.0267653 -1.43128e-07 -5.67051e-25)
(0.0817198 -3.51442e-06 4.30504e-24)
(0.140061 -1.18519e-05 -3.18382e-24)
(0.19045 -2.45908e-05 0)
(0.227534 -3.99715e-05 0)
(0.255201 -5.75916e-05 0)
(0.276866 -7.76808e-05 4.76291e-24)
(0.294569 -0.000100195 -4.03821e-24)
(0.30952 -0.000124991 0)
(0.322449 -0.000151793 0)
(0.333803 -0.0001802 0)
(0.343865 -0.000209689 0)
(0.352823 -0.000239652 0)
(0.360813 -0.000269442 0)
(0.367937 -0.000298435 4.08402e-24)
(0.374281 -0.000326086 -1.1849e-28)
(0.379924 -0.00035197 -7.04813e-24)
(0.384936 -0.000375795 3.28778e-24)
(0.389384 -0.000397405 0)
(0.393328 -0.000416755 0)
(0.39682 -0.00043389 0)
(0.399906 -0.00044891 0)
(0.402622 -0.00046194 0)
(0.404992 -0.000473098 0)
(0.407033 -0.000482453 0)
(0.408749 -0.000489993 0)
(0.410134 -0.000495562 0)
(0.411169 -0.00049881 0)
(0.411822 -0.000499092 0)
(0.412043 -0.000495372 0)
(0.411767 -0.000486073 -1.08424e-24)
(0.410904 -0.000468929 5.42795e-25)
(0.409335 -0.00044082 5.31937e-25)
(0.40713 -0.000401577 1.08643e-24)
(0.404622 -0.000356342 -1.08039e-24)
(0.401918 -0.000307307 0)
(0.399084 -0.000256412 -2.15724e-24)
(0.39616 -0.000205303 2.1593e-24)
(0.393164 -0.000155331 -2.17475e-24)
(0.390105 -0.000107566 2.19231e-24)
(0.386979 -6.28281e-05 0)
(0.383775 -2.17297e-05 0)
(0.380474 1.52972e-05 0)
(0.377054 4.79599e-05 -2.39672e-24)
(0.373485 7.60837e-05 4.96741e-24)
(0.369731 9.95826e-05 -2.59086e-24)
(0.365753 0.000118448 0)
(0.3615 0.000132732 0)
(0.356917 0.000142544 0)
(0.351935 0.000148045 -3.29472e-24)
(0.346474 0.000149446 3.55829e-24)
(0.340437 0.000147022 0)
(0.333706 0.00014111 0)
(0.326131 0.00013213 0)
(0.317519 0.00012058 0)
(0.307614 0.000107039 0)
(0.296064 9.21516e-05 3.45234e-24)
(0.282358 7.66088e-05 -4.05981e-24)
(0.265725 6.10998e-05 2.44905e-24)
(0.244943 4.6254e-05 -3.62141e-28)
(0.218033 3.25689e-05 -3.95708e-24)
(0.181745 2.01762e-05 0)
(0.132874 9.76796e-06 1.66344e-24)
(0.0773344 2.92617e-06 -8.87506e-25)
(0.0253144 1.40558e-07 -5.81203e-25)
(0.0269118 -1.63055e-07 0)
(0.0821623 -3.69459e-06 -4.09826e-24)
(0.140789 -1.23686e-05 3.78405e-24)
(0.191353 -2.55412e-05 -5.92426e-24)
(0.228531 -4.13782e-05 4.44298e-24)
(0.256254 -5.94683e-05 3.46389e-24)
(0.277949 -8.00479e-05 -2.82606e-24)
(0.295657 -0.000103059 0)
(0.310593 -0.000128324 0)
(0.323485 -0.000155527 0)
(0.334784 -0.000184218 -3.3636e-24)
(0.344777 -0.000213837 3.0679e-24)
(0.353654 -0.000243762 0)
(0.361553 -0.000273356 0)
(0.368583 -0.000302037 0)
(0.374835 -0.000329308 0)
(0.380389 -0.000354791 0)
(0.385321 -0.000378241 0)
(0.389699 -0.000399538 0)
(0.393582 -0.000418672 0)
(0.397024 -0.000435713 0)
(0.400068 -0.000450784 0)
(0.402748 -0.000464028 0)
(0.40509 -0.000475576 0)
(0.407107 -0.000485511 0)
(0.408803 -0.000493829 0)
(0.410169 -0.000500382 0)
(0.411185 -0.000504817 0)
(0.411817 -0.00050648 0)
(0.412015 -0.000504307 0)
(0.411711 -0.000496668 0)
(0.410813 -0.000481205 0)
(0.409203 -0.000454661 0)
(0.406952 -0.000416549 0)
(0.404402 -0.00037192 0)
(0.401659 -0.00032305 -2.53896e-24)
(0.398791 -0.000271967 2.53408e-24)
(0.395838 -0.000220397 -2.54212e-24)
(0.392821 -0.000169752 2.55178e-24)
(0.389746 -0.00012116 2.57805e-24)
(0.38661 -7.54828e-05 -5.22167e-24)
(0.383403 -3.33641e-05 -3.47379e-27)
(0.380107 4.73948e-06 -3.43452e-27)
(0.376699 3.85174e-05 5.60841e-24)
(0.373151 6.77811e-05 -2.90418e-24)
(0.369428 9.24343e-05 -3.03248e-24)
(0.365489 0.00011246 3.18157e-24)
(0.361287 0.000127899 0)
(0.356764 0.000138851 0)
(0.351855 0.000145462 0)
(0.346477 0.000147934 0)
(0.340534 0.000146519 0)
(0.333903 0.000141525 0)
(0.326434 0.000133326 0)
(0.317931 0.00012237 0)
(0.308133 0.000109201 0)
(0.29668 9.44497e-05 4.07258e-24)
(0.283056 7.88219e-05 -4.79718e-24)
(0.266481 6.30495e-05 0)
(0.245726 4.78256e-05 3.61637e-24)
(0.218807 3.37073e-05 -9.38054e-24)
(0.182466 2.08895e-05 6.2582e-24)
(0.133463 1.01318e-05 0)
(0.0776918 3.05345e-06 0)
(0.0254329 1.47038e-07 0)
(0.027095 -1.6027e-07 0)
(0.082713 -3.79567e-06 0)
(0.141673 -1.27464e-05 0)
(0.192377 -2.63283e-05 0)
(0.229601 -4.26374e-05 5.1313e-24)
(0.257354 -6.12539e-05 5.84685e-28)
(0.279067 -8.2391e-05 -3.26114e-24)
(0.296777 -0.00010596 5.52284e-24)
(0.311695 -0.000131752 9.1512e-28)
(0.324548 -0.000159415 -4.27451e-24)
(0.335785 -0.000188474 0)
(0.345698 -0.000218346 0)
(0.354483 -0.000248395 0)
(0.362284 -0.000277985 5.90688e-24)
(0.369215 -0.000306543 -5.45123e-24)
(0.375372 -0.000333605 0)
(0.380839 -0.000358836 4.68693e-24)
(0.385693 -0.000382039 -4.3704e-24)
(0.390003 -0.000403135 0)
(0.393829 -0.000422151 3.85348e-24)
(0.397222 -0.000439183 -7.29909e-24)
(0.400227 -0.000454379 3.47797e-24)
(0.402876 -0.000467898 0)
(0.405191 -0.000479889 0)
(0.407186 -0.000490446 0)
(0.408862 -0.000499575 -3.05601e-24)
(0.41021 -0.000507137 3.00316e-24)
(0.411208 -0.000512776 2.96604e-24)
(0.411819 -0.000515832 -2.94207e-24)
(0.411994 -0.000515211 0)
(0.411662 -0.000509236 -1.46439e-24)
(0.410729 -0.000495469 1.4674e-24)
(0.409076 -0.000470521 0)
(0.406779 -0.00043358 0)
(0.404184 -0.00038957 0)
(0.401401 -0.000340848 -2.91038e-24)
(0.398498 -0.000289525 5.80994e-24)
(0.395514 -0.000237405 -5.81673e-24)
(0.392472 -0.000185972 5.84154e-24)
(0.389379 -0.00013641 -5.88823e-24)
(0.386232 -8.96324e-05 5.96097e-24)
(0.38302 -4.632e-05 -3.03028e-24)
(0.379727 -6.96113e-06 0)
(0.376329 2.81101e-05 0)
(0.372799 5.86865e-05 0)
(0.369103 8.46563e-05 -3.44217e-24)
(0.365201 0.000105988 -3.09622e-27)
(0.361045 0.000122712 7.62702e-24)
(0.356581 0.000134912 2.67991e-27)
(0.35174 0.000142716 -4.35175e-24)
(0.346443 0.000146303 0)
(0.340593 0.000145893 5.12953e-24)
(0.334068 0.000141769 -1.12817e-23)
(0.326715 0.000134282 6.2666e-24)
(0.318335 0.000123866 0)
(0.308659 0.000111055 0)
(0.297321 9.64743e-05 -4.64684e-24)
(0.283794 8.08358e-05 5.49105e-24)
(0.267289 6.48945e-05 -3.32691e-24)
(0.246576 4.93799e-05 4.16094e-24)
(0.219668 3.49065e-05 0)
(0.183311 2.16994e-05 0)
(0.134195 1.05376e-05 0)
(0.0781439 3.16224e-06 0)
(0.0255829 1.50684e-07 0)
(0.027249 -1.75004e-07 -1.79572e-24)
(0.0831776 -3.96907e-06 2.71797e-24)
(0.142436 -1.32636e-05 0)
(0.193319 -2.73124e-05 0)
(0.230636 -4.41369e-05 0)
(0.258444 -6.33043e-05 0)
(0.280181 -8.50187e-05 0)
(0.29789 -0.00010916 0)
(0.312783 -0.000135472 5.46464e-24)
(0.325591 -0.000163553 -4.85004e-24)
(0.336766 -0.000192881 0)
(0.346602 -0.000222854 -7.93128e-24)
(0.355298 -0.00025284 7.24844e-24)
(0.363005 -0.000282239 0)
(0.36984 -0.000310522 6.13094e-24)
(0.375904 -0.00033727 -5.66811e-24)
(0.381286 -0.000362188 0)
(0.386063 -0.000385117 0)
(0.390306 -0.000406011 0)
(0.394076 -0.000424925 0)
(0.397423 -0.000441983 0)
(0.40039 -0.000457349 0)
(0.403007 -0.000471201 0)
(0.405297 -0.0004837 0)
(0.407271 -0.000494954 0)
(0.408929 -0.00050498 0)
(0.410259 -0.000513643 0)
(0.411239 -0.000520591 3.34414e-24)
(0.411831 -0.000525151 -3.31818e-24)
(0.411983 -0.000526202 0)
(0.411622 -0.000522016 -1.65218e-24)
(0.410654 -0.000510059 1.65564e-24)
(0.408957 -0.000486803 0)
(0.406612 -0.000451088 0)
(0.403972 -0.000407725 0)
(0.401147 -0.000359159 0)
(0.398206 -0.000307595 0)
(0.395191 -0.000254923 0)
(0.392124 -0.000202703 0)
(0.389011 -0.00015218 0)
(0.385851 -0.000104316 0)
(0.382633 -5.98328e-05 0)
(0.379341 -1.92471e-05 -3.48409e-24)
(0.375952 1.70849e-05 -3.56237e-27)
(0.37244 4.89389e-05 3.70083e-24)
(0.36877 7.61914e-05 0)
(0.364903 9.8801e-05 0)
(0.360794 0.000116788 0)
(0.356386 0.000130227 0)
(0.351614 0.000139238 0)
(0.346398 0.000143986 0)
(0.34064 0.000144682 0)
(0.334217 0.000141587 0)
(0.326974 0.000135022 0)
(0.318707 0.000125375 0)
(0.309146 0.000113122 0)
(0.297916 9.88523e-05 0)
(0.284483 8.32625e-05 0)
(0.26805 6.71372e-05 0)
(0.247375 5.12692e-05 0)
(0.220467 3.63443e-05 0)
(0.184062 2.26474e-05 0)
(0.134811 1.10329e-05 5.20313e-24)
(0.078519 3.32406e-06 -5.57925e-24)
(0.0257072 1.6166e-07 0)
(0.0274401 -1.7361e-07 0)
(0.0837522 -4.07678e-06 0)
(0.143356 -1.36603e-05 0)
(0.194381 -2.81313e-05 8.728e-24)
(0.231742 -4.54372e-05 6.1325e-28)
(0.259578 -6.51386e-05 -5.08845e-24)
(0.281328 -8.74129e-05 0)
(0.299032 -0.000112107 0)
(0.313897 -0.00013893 0)
(0.326653 -0.000167443 0)
(0.337755 -0.000197095 0)
(0.347502 -0.00022726 0)
(0.3561 -0.000257294 0)
(0.363706 -0.0002866 0)
(0.370443 -0.000314677 0)
(0.376416 -0.000341147 0)
(0.381714 -0.000365767 0)
(0.386418 -0.000388424 0)
(0.390598 -0.000409114 0)
(0.394315 -0.000427924 0)
(0.397619 -0.000445003 0)
(0.400551 -0.000460539 0)
(0.40314 -0.000474728 0)
(0.405406 -0.000487748 0)
(0.407361 -0.000499723 -7.79783e-24)
(0.409001 -0.000510681 3.81618e-24)
(0.410315 -0.000520497 -1.129e-28)
(0.411278 -0.00052882 3.71232e-24)
(0.411851 -0.000534966 -3.68634e-24)
(0.41198 -0.000537788 3.67268e-24)
(0.41159 -0.0005355 0)
(0.410587 -0.000525475 0)
(0.408845 -0.000504035 0)
(0.406451 -0.000469652 0)
(0.403763 -0.000427001 3.65943e-24)
(0.400895 -0.000378622 -3.64171e-24)
(0.397915 -0.000326816 0)
(0.394867 -0.000273563 3.63754e-24)
(0.391772 -0.000220503 -3.6448e-24)
(0.388638 -0.000168949 7.34487e-24)
(0.385463 -0.000119915 -7.41621e-24)
(0.382237 -7.41663e-05 0)
(0.378944 -3.22527e-05 -7.69734e-24)
(0.375562 5.44428e-06 1.18492e-23)
(0.372064 3.86813e-05 -4.07991e-24)
(0.368417 6.73199e-05 0)
(0.364583 9.13061e-05 0)
(0.360516 0.00011065 0)
(0.356161 0.000125414 0)
(0.351453 0.000135703 0)
(0.346313 0.000141664 0)
(0.340644 0.00014348 0)
(0.334324 0.000141379 0)
(0.327196 0.00013565 3.86477e-24)
(0.319056 0.000126654 -4.35688e-24)
(0.309627 0.000114853 0)
(0.298527 0.000100829 5.80029e-24)
(0.285209 8.52824e-05 -6.88962e-24)
(0.268865 6.90194e-05 0)
(0.248247 5.28699e-05 0)
(0.221362 3.75767e-05 0)
(0.184947 2.3472e-05 0)
(0.135585 1.1447e-05 0)
(0.0789987 3.43888e-06 3.13647e-24)
(0.0258665 1.63205e-07 -2.06232e-24)
(0.0276012 -1.88937e-07 2.25433e-24)
(0.0842381 -4.26588e-06 -3.40402e-24)
(0.144151 -1.42228e-05 0)
(0.195359 -2.91958e-05 9.69419e-24)
(0.232815 -4.70503e-05 -1.45107e-23)
(0.260701 -6.7329e-05 -6.35453e-28)
(0.282471 -9.01941e-05 4.59979e-24)
(0.300165 -0.000115448 0)
(0.314998 -0.000142742 6.73595e-24)
(0.3277 -0.000171595 -5.95569e-24)
(0.338731 -0.000201424 0)
(0.348392 -0.000231603 0)
(0.356896 -0.000261514 0)
(0.364404 -0.000290597 0)
(0.371043 -0.000318387 7.39138e-24)
(0.376924 -0.000344548 -6.82232e-24)
(0.382139 -0.000368873 6.32583e-24)
(0.386771 -0.000391283 -4.86908e-28)
(0.39089 -0.000411808 -5.55247e-28)
(0.394556 -0.000430562 -5.21024e-24)
(0.397818 -0.000447717 0)
(0.400715 -0.000463481 0)
(0.403277 -0.000478069 0)
(0.405522 -0.000491675 0)
(0.407457 -0.000504438 8.55701e-24)
(0.409082 -0.000516399 -1.67611e-23)
(0.41038 -0.000527444 4.12515e-24)
(0.411327 -0.000537223 8.16132e-24)
(0.411881 -0.000545044 -4.05262e-24)
(0.411987 -0.000549732 0)
(0.411568 -0.000549442 0)
(0.410528 -0.000541451 0)
(0.408741 -0.000521924 0)
(0.406296 -0.000488946 0)
(0.403559 -0.000447055 4.02397e-24)
(0.400646 -0.000398892 -4.00362e-24)
(0.397626 -0.00034686 0)
(0.394542 -0.000293036 3.99553e-24)
(0.391418 -0.000239143 -4.0016e-24)
(0.388261 -0.000186564 0)
(0.38507 -0.00013637 0)
(0.381835 -8.93687e-05 0)
(0.37854 -4.61453e-05 0)
(0.375164 -7.10604e-06 0)
(0.371679 2.74864e-05 -4.46287e-24)
(0.368055 5.74797e-05 4.63438e-24)
(0.364252 8.2809e-05 0)
(0.360226 0.000103475 0)
(0.355924 0.000119532 0)
(0.35128 0.000131078 -5.82897e-24)
(0.346218 0.000138246 6.29914e-24)
(0.340638 0.000141212 0)
(0.33442 0.000140193 0)
(0.327405 0.000135456 -4.2287e-24)
(0.319384 0.000127333 4.77688e-24)
(0.310078 0.000116237 -5.47747e-24)
(0.299096 0.00010269 6.3889e-24)
(0.285886 8.73578e-05 0)
(0.269629 7.10427e-05 4.63999e-24)
(0.249064 5.46268e-05 -3.71893e-28)
(0.222187 3.89309e-05 -7.60428e-24)
(0.18573 2.43687e-05 -5.09546e-24)
(0.136232 1.19229e-05 6.48029e-24)
(0.0793943 3.605e-06 0)
(0.0259977 1.75548e-07 3.34058e-35)
(0.0278013 -1.87821e-07 0)
(0.0848396 -4.38176e-06 0)
(0.14511 -1.46456e-05 -6.8526e-24)
(0.196461 -3.00604e-05 5.31226e-24)
(0.233959 -4.84155e-05 0)
(0.26187 -6.92459e-05 -6.18343e-24)
(0.283646 -9.26846e-05 -5.03093e-24)
(0.301326 -0.000118498 8.47891e-24)
(0.316118 -0.000146296 0)
(0.328756 -0.000175553 -6.47629e-24)
(0.339702 -0.000205654 5.79052e-24)
(0.349267 -0.000235946 -1.04552e-23)
(0.35767 -0.00026581 1.90064e-23)
(0.365076 -0.000294706 -1.73709e-23)
(0.371619 -0.000322212 7.9763e-24)
(0.377411 -0.000348041 0)
(0.382547 -0.000372038 6.82435e-24)
(0.387111 -0.000394168 -5.35666e-28)
(0.391172 -0.000414496 -5.96713e-24)
(0.394789 -0.000433166 0)
(0.398013 -0.000450377 0)
(0.400879 -0.000466357 0)
(0.403415 -0.000481342 0)
(0.40564 -0.000495543 0)
(0.407559 -0.000509118 9.29285e-24)
(0.409169 -0.000522123 -9.10852e-24)
(0.410453 -0.000534454 0)
(0.411384 -0.000545766 0)
(0.41192 -0.000555358 0)
(0.412003 -0.000562024 -4.40028e-24)
(0.411555 -0.000563861 6.59943e-24)
(0.410478 -0.00055804 -1.10227e-24)
(0.408644 -0.000540562 -2.16083e-24)
(0.406147 -0.000509096 -1.10272e-24)
(0.40336 -0.000468031 2.18953e-24)
(0.400399 -0.00042011 0)
(0.397337 -0.000367847 0)
(0.394217 -0.000313419 -4.34584e-24)
(0.391062 -0.00025864 4.34993e-24)
(0.38788 -0.000204965 0)
(0.384671 -0.000153527 0)
(0.381425 -0.000105181 0)
(0.378126 -6.05482e-05 0)
(0.374753 -2.00626e-05 0)
(0.371279 1.59924e-05 4.82562e-24)
(0.367674 4.74492e-05 -5.00637e-24)
(0.363899 7.42308e-05 0)
(0.359911 9.63284e-05 0)
(0.355657 0.000113787 0)
(0.351073 0.000126692 -6.27415e-24)
(0.346083 0.000135165 -2.66423e-27)
(0.340588 0.000139359 1.4788e-23)
(0.334469 0.000139462 2.04176e-27)
(0.327566 0.000135705 -4.54592e-24)
(0.319673 0.000128378 6.19285e-28)
(0.310504 0.000117864 3.7135e-28)
(0.299664 0.000104667 -6.90278e-24)
(0.286588 8.94533e-05 0)
(0.270441 7.30443e-05 0)
(0.249952 5.63619e-05 0)
(0.223113 4.02914e-05 8.31103e-24)
(0.186656 2.52956e-05 -1.11617e-23)
(0.137048 1.23928e-05 0)
(0.0799027 3.73331e-06 0)
(0.0261666 1.77907e-07 0)
(0.0279697 -2.03112e-07 0)
(0.0853473 -4.57254e-06 0)
(0.145938 -1.52155e-05 0)
(0.197476 -3.11479e-05 1.16032e-23)
(0.235068 -5.00692e-05 -8.67318e-24)
(0.263027 -7.14875e-05 0)
(0.284817 -9.54993e-05 0)
(0.30248 -0.000121818 9.23741e-24)
(0.317229 -0.000150008 -7.98253e-24)
(0.329803 -0.000179512 7.03022e-24)
(0.340668 -0.000209705 -1.88178e-23)
(0.350139 -0.000239948 1.12986e-23)
(0.358441 -0.000269647 0)
(0.365746 -0.000298292 0)
(0.372192 -0.000325498 -8.57514e-24)
(0.377895 -0.000351012 1.58112e-23)
(0.382952 -0.000374715 -7.32828e-24)
(0.387448 -0.000396608 6.83191e-24)
(0.391452 -0.000416789 -6.40953e-24)
(0.395024 -0.000435428 -6.05127e-24)
(0.398209 -0.000452749 5.75231e-24)
(0.401046 -0.000469001 0)
(0.403559 -0.00048444 0)
(0.405765 -0.000499297 0)
(0.407668 -0.000513747 0)
(0.409264 -0.000527863 0)
(0.410535 -0.000541556 0)
(0.411451 -0.000554484 0)
(0.411969 -0.000565939 0)
(0.412029 -0.000574687 -4.75843e-24)
(0.411553 -0.000578762 4.75778e-24)
(0.410438 -0.000575226 0)
(0.408555 -0.000559909 1.16885e-24)
(0.406004 -0.000530045 1.19248e-24)
(0.403165 -0.000489863 -2.36751e-24)
(0.400156 -0.000442218 0)
(0.39705 -0.000389737 0)
(0.393891 -0.000334706 0)
(0.390703 -0.000279032 0)
(0.387496 -0.00022425 0)
(0.384267 -0.000171556 -9.52387e-24)
(0.381008 -0.000121855 1.92896e-23)
(0.377704 -7.58054e-05 -9.81783e-24)
(0.374332 -3.38707e-05 0)
(0.370868 3.64424e-06 0)
(0.367281 3.6556e-05 0)
(0.363534 6.47757e-05 5.61985e-24)
(0.359583 8.82846e-05 3.45446e-27)
(0.355377 0.000107119 -1.25534e-23)
(0.350853 0.000121357 1.34382e-23)
(0.345934 0.000131109 -1.4519e-23)
(0.340526 0.00013652 -2.45736e-27)
(0.334507 0.000137765 8.74054e-24)
(0.327718 0.000135064 0)
(0.319949 0.000128686 0)
(0.310912 0.000118981 -6.36707e-24)
(0.300204 0.000106405 7.46425e-24)
(0.28725 9.15618e-05 -8.9379e-24)
(0.271205 7.5238e-05 1.64545e-23)
(0.250784 5.83699e-05 -6.93006e-24)
(0.223965 4.19073e-05 0)
(0.187473 2.64028e-05 6.08959e-24)
(0.137729 1.29858e-05 -7.77814e-24)
(0.0803207 3.93052e-06 -4.20504e-24)
(0.0263053 1.92055e-07 2.77359e-24)
(0.0281785 -2.00458e-07 0)
(0.0859747 -4.68983e-06 0)
(0.146935 -1.5654e-05 0)
(0.198617 -3.20477e-05 0)
(0.23625 -5.14836e-05 0)
(0.264229 -7.34697e-05 0)
(0.286016 -9.80688e-05 0)
(0.303651 -0.000124951 0)
(0.318348 -0.000153627 0)
(0.330845 -0.000183491 0)
(0.341618 -0.000213878 0)
(0.350987 -0.000244137 0)
(0.359185 -0.000273687 1.09246e-23)
(0.366389 -0.000302056 -1.99138e-23)
(0.372741 -0.000328907 1.70088e-28)
(0.378358 -0.000354042 3.49062e-28)
(0.383341 -0.000377391 7.79921e-24)
(0.387773 -0.000398995 7.27423e-24)
(0.391725 -0.000418985 -6.82915e-24)
(0.395253 -0.000437562 0)
(0.398404 -0.000454972 0)
(0.401213 -0.000471487 0)
(0.403705 -0.000487382 0)
(0.405894 -0.000502911 0)
(0.407783 -0.000518267 0)
(0.409366 -0.000533544 -1.05438e-23)
(0.410625 -0.000548665 1.03998e-23)
(0.411527 -0.000563296 0)
(0.412028 -0.000576722 0)
(0.412066 -0.000587677 0)
(0.41156 -0.000594132 0)
(0.410407 -0.000593035 0)
(0.408475 -0.00058003 0)
(0.405868 -0.000551889 0)
(0.402975 -0.000512668 -5.08935e-24)
(0.399915 -0.000465335 5.0598e-24)
(0.396763 -0.000412641 0)
(0.393564 -0.000356986 0)
(0.390342 -0.000300376 -1.00791e-23)
(0.387107 -0.00024443 1.01103e-23)
(0.383857 -0.000190412 0)
(0.380583 -0.000139278 0)
(0.377271 -9.1728e-05 0)
(0.373899 -4.82561e-05 0)
(0.370443 -9.18926e-06 0)
(0.366871 2.52728e-05 0)
(0.363148 5.5029e-05 0)
(0.359231 8.00516e-05 0)
(0.355068 0.000100368 0)
(0.350599 0.000116048 0)
(0.345748 0.000127192 0)
(0.340421 0.000133927 0)
(0.334496 0.000136408 9.27449e-24)
(0.327817 0.000134819 -1.0359e-23)
(0.320174 0.000129389 0)
(0.311276 0.000120421 0)
(0.300718 0.000108333 0)
(0.287914 9.37095e-05 0)
(0.272003 7.73482e-05 0)
(0.251682 6.02276e-05 -7.44524e-24)
(0.22492 4.33733e-05 1.95212e-23)
(0.18844 2.74018e-05 -1.31484e-23)
(0.138591 1.34948e-05 0)
(0.0808603 4.07264e-06 0)
(0.0264847 1.93296e-07 0)
(0.0283545 -2.21157e-07 0)
(0.0865046 -4.9333e-06 -9.65403e-24)
(0.147797 -1.63523e-05 8.76167e-24)
(0.19967 -3.33157e-05 0)
(0.237395 -5.33197e-05 0)
(0.265419 -7.5844e-05 -7.84587e-24)
(0.287213 -0.000100941 6.36371e-24)
(0.304823 -0.000128246 1.06826e-23)
(0.319466 -0.000157239 -9.19508e-24)
(0.331888 -0.000187291 -8.06263e-24)
(0.342568 -0.000217731 7.16212e-24)
(0.351835 -0.000247908 0)
(0.359928 -0.000277258 0)
(0.367029 -0.000305338 0)
(0.373285 -0.000331849 0)
(0.378817 -0.000356635 0)
(0.383726 -0.000379669 0)
(0.388095 -0.000401027 0)
(0.391995 -0.000420872 0)
(0.395482 -0.000439432 0)
(0.3986 -0.000456976 0)
(0.401384 -0.000473799 0)
(0.403856 -0.000490198 0)
(0.406029 -0.000506449 0)
(0.407905 -0.000522767 0)
(0.409477 -0.000539267 0)
(0.410724 -0.000555889 0)
(0.411613 -0.000572308 0)
(0.412098 -0.000587802 0)
(0.412113 -0.000601077 0)
(0.411578 -0.000610036 0)
(0.410385 -0.000611508 0)
(0.408403 -0.000600948 0)
(0.405739 -0.000574639 0)
(0.40279 -0.000536451 0)
(0.399677 -0.000489476 0)
(0.396477 -0.000436593 0)
(0.393236 -0.000380322 0)