/*--------------------------------*- C++ -*----------------------------------*\
| =========                 |                                                 |
| \\      /  F ield         | OpenFOAM: The Open Source CFD Toolbox           |
|  \\    /   O peration     | Version:  2412                                  |
|   \\  /    A nd           | Website:  www.openfoam.com                      |
|    \\/     M anipulation  |                                                 |
\*---------------------------------------------------------------------------*/
FoamFile
{
    version     2.0;
    format      ascii;
    arch        "LSB;label=32;scalar=64";
    class       volScalarField;
    location    "1714";
    object      k;
}
// * * * * * * * * * * * * * * * * * * * * * * * * * * * * * * * * * * * * * //

dimensions      [0 2 -2 0 0 0 0];

internalField   nonuniform List<scalar> 
32240
(
2.80344e-05
4.4872e-05
0.000295118
0.000754214
0.00108336
0.00127681
0.00138285
0.00143594
0.00145628
0.00145551
0.00144078
0.00141645
0.00138548
0.00134993
0.00131147
0.00127175
0.00123264
0.00119624
0.00116506
0.0011419
0.00112971
0.00113116
0.00114813
0.00118148
0.00123036
0.00129269
0.00136538
0.00144462
0.00152601
0.00160464
0.00167499
0.00173106
0.00176737
0.00177576
0.00176107
0.00173001
0.00168806
0.00163922
0.00158682
0.0015335
0.00148124
0.00143148
0.0013852
0.00134302
0.0013053
0.00127212
0.00124342
0.00121894
0.00119831
0.00118099
0.00116627
0.00115328
0.00114088
0.00112761
0.00111158
0.00109015
0.00105957
0.00101367
0.000942302
0.000829754
0.00065416
0.000395187
0.000129818
1.91304e-05
1.4891e-05
2.88873e-05
4.64775e-05
0.000304789
0.000772278
0.00110376
0.00129761
0.00140316
0.00145544
0.00147486
0.00147314
0.00145755
0.00143257
0.00140121
0.00136558
0.00132749
0.00128875
0.00125141
0.00121774
0.00119041
0.00117233
0.00116647
0.00117527
0.00120047
0.00124237
0.0012998
0.00137044
0.00145096
0.00153736
0.00162512
0.00170933
0.00178473
0.00184534
0.0018832
0.00188921
0.00186988
0.00183233
0.00178268
0.00172597
0.00166596
0.00160536
0.00154613
0.00148968
0.00143702
0.00138881
0.00134541
0.00130698
0.00127344
0.00124454
0.00121991
0.00119902
0.0011812
0.00116553
0.00115086
0.00113573
0.00111817
0.00109554
0.00106402
0.00101746
0.000945658
0.000832763
0.000656733
0.000397187
0.000130584
1.92325e-05
1.48815e-05
2.91387e-05
4.72127e-05
0.000309385
0.000780851
0.00111304
0.00130676
0.00141191
0.00146359
0.00148232
0.00147998
0.00146392
0.00143862
0.00140708
0.00137139
0.00133354
0.00129527
0.00125882
0.00122648
0.00120099
0.00118531
0.00118235
0.00119446
0.00122327
0.00126884
0.00132992
0.00140408
0.00148795
0.00157741
0.00166777
0.00175383
0.00182995
0.00188999
0.00192706
0.00193214
0.00191133
0.00187206
0.00182065
0.00176186
0.00169936
0.001636
0.00157391
0.00151466
0.0014593
0.00140851
0.00136267
0.00132192
0.00128621
0.00125533
0.00122891
0.0012064
0.00118714
0.00117028
0.00115461
0.00113865
0.00112042
0.00109724
0.00106528
0.00101844
0.000946437
0.000833434
0.000657356
0.000397872
0.000130918
1.92921e-05
1.49607e-05
2.9722e-05
4.83794e-05
0.000316428
0.000793978
0.00112784
0.00132191
0.00142681
0.00147802
0.00149615
0.00149325
0.00147683
0.00145131
0.00141981
0.00138445
0.00134731
0.00131043
0.00127597
0.00124644
0.0012247
0.00121378
0.00121652
0.00123516
0.00127103
0.00132388
0.0013922
0.00147332
0.00156367
0.0016589
0.00175409
0.00184386
0.0019225
0.00198392
0.00202084
0.00202401
0.0020001
0.0019567
0.00190038
0.00183618
0.00176805
0.00169901
0.00163128
0.00156648
0.00150573
0.00144976
0.00139901
0.00135367
0.0013137
0.00127889
0.0012489
0.00122319
0.00120107
0.00118169
0.00116386
0.00114607
0.00112639
0.00110209
0.00106929
0.00102189
0.000949506
0.000836237
0.000659809
0.00039963
0.000131598
1.93871e-05
1.49731e-05
3.0183e-05
4.93655e-05
0.000322395
0.000804884
0.00113971
0.00133361
0.00143784
0.00148815
0.00150533
0.00150159
0.00148453
0.00145854
0.00142679
0.0013916
0.00135503
0.00131903
0.00128594
0.00125838
0.00123928
0.00123166
0.00123826
0.00126123
0.00130162
0.00135904
0.00143186
0.00151737
0.00161193
0.0017111
0.00180971
0.00190208
0.00198234
0.00204452
0.00208135
0.00208326
0.00205721
0.00201104
0.00195155
0.00188392
0.00181218
0.00173941
0.00166795
0.00159948
0.00153515
0.00147576
0.00142175
0.00137331
0.00133045
0.00129298
0.00126054
0.00123263
0.00120858
0.00118756
0.00116838
0.00114954
0.00112905
0.00110417
0.00107093
0.0010233
0.000950821
0.000837604
0.000661265
0.000400685
0.000132035
1.94548e-05
1.50179e-05
3.07194e-05
5.05382e-05
0.000329499
0.000818035
0.00115451
0.00134878
0.00145283
0.00150277
0.00151951
0.00151541
0.0014981
0.00147204
0.00144046
0.00140577
0.00137017
0.00133575
0.00130498
0.00128062
0.00126566
0.00126312
0.00127561
0.00130519
0.00135251
0.00141697
0.00149674
0.00158894
0.0016898
0.00179469
0.00189814
0.00199403
0.0020763
0.00213933
0.00217587
0.00217594
0.00214685
0.00209666
0.00203245
0.00195962
0.00188241
0.00180408
0.00172706
0.00165313
0.00158352
0.00151905
0.0014602
0.0014072
0.00136008
0.00131865
0.00128259
0.00125137
0.00122433
0.0012006
0.00117902
0.00115809
0.00113581
0.00110946
0.00107509
0.00102669
0.000953662
0.00084006
0.000663334
0.000402182
0.000132631
1.95421e-05
1.5052e-05
3.124e-05
5.16238e-05
0.000336002
0.000829739
0.0011672
0.00136128
0.00146465
0.00151377
0.00152976
0.00152507
0.00150733
0.00148105
0.00144952
0.00141502
0.00138003
0.0013468
0.00131791
0.0012962
0.00128467
0.0012863
0.00130355
0.00133829
0.00139091
0.00146067
0.00154564
0.00164288
0.00174863
0.00185817
0.00196572
0.00206456
0.00214834
0.00221204
0.00224859
0.00224736
0.00221587
0.00216249
0.00209456
0.00201766
0.00193617
0.00185346
0.00177205
0.00169378
0.00161994
0.00155138
0.00148862
0.00143189
0.00138125
0.00133653
0.00129742
0.00126343
0.00123391
0.00120804
0.00118471
0.00116237
0.00113902
0.00111188
0.00107693
0.00102819
0.000954958
0.000841245
0.000664406
0.000403026
0.000132991
1.95983e-05
1.50883e-05
3.18165e-05
5.29296e-05
0.000343875
0.000844125
0.00118336
0.00137776
0.00148071
0.00152903
0.00154415
0.00153878
0.00152056
0.00149411
0.00146293
0.00142946
0.00139599
0.00136495
0.00133904
0.00132116
0.00131436
0.00132151
0.00134504
0.00138648
0.00144602
0.00152267
0.00161432
0.00171793
0.00182965
0.00194474
0.00205716
0.00215947
0.00224509
0.00230947
0.00234601
0.00234308
0.0023085
0.00225104
0.00217832
0.0020962
0.00200923
0.00192094
0.00183398
0.00175026
0.00167113
0.00159748
0.00152985
0.00146852
0.00141354
0.00136476
0.00132188
0.00128442
0.00125173
0.00122295
0.00119705
0.00117247
0.00114721
0.00111847
0.00108222
0.00103242
0.000958386
0.000844008
0.000666574
0.000404598
0.000133621
1.9692e-05
1.51317e-05
3.2383e-05
5.41714e-05
0.000351303
0.000857478
0.00119811
0.00139256
0.0014949
0.0015422
0.00155625
0.00154999
0.0015311
0.00150436
0.00147328
0.00144036
0.00140814
0.00137902
0.00135574
0.00134129
0.00133869
0.00135072
0.00137977
0.00142705
0.00149256
0.00157513
0.00167249
0.00178144
0.00189798
0.00201723
0.00213306
0.00223844
0.00232703
0.00239313
0.00243024
0.00242609
0.00238886
0.00232775
0.00225076
0.00216396
0.00207211
0.00197886
0.00188694
0.00179833
0.00171444
0.00163617
0.00156411
0.00149856
0.00143958
0.00138706
0.00134071
0.00130009
0.00126457
0.0012333
0.0012052
0.00117878
0.00115201
0.00112209
0.00108492
0.00103443
0.000959957
0.000845239
0.000667525
0.000405438
0.000133991
1.97508e-05
1.51738e-05
3.29715e-05
5.55093e-05
0.000359309
0.000871888
0.00121418
0.00140899
0.00151084
0.00155747
0.0015709
0.00156427
0.00154532
0.00151892
0.00148854
0.00145686
0.00142648
0.00139993
0.00138006
0.00136988
0.00137245
0.00139046
0.00142612
0.00148034
0.00155292
0.00164246
0.00174648
0.00186163
0.00198379
0.00210802
0.0022277
0.00233561
0.0024269
0.00249492
0.00253251
0.00252681
0.00248639
0.00242094
0.00233889
0.00224665
0.00214916
0.00205022
0.00195266
0.00185852
0.00176925
0.00168579
0.00160873
0.0015384
0.00147489
0.00141808
0.00136772
0.00132336
0.00128441
0.00125002
0.00121917
0.00119034
0.00116154
0.00112994
0.00109144
0.00103987
0.000964647
0.000849314
0.000670995
0.000407932
0.000134985
1.98971e-05
1.52355e-05
3.3555e-05
5.67518e-05
0.000366635
0.000884633
0.00122777
0.00142216
0.00152299
0.00156845
0.0015811
0.00157427
0.00155548
0.00152989
0.00150052
0.0014702
0.00144159
0.00141752
0.00140095
0.00139494
0.00140247
0.00142621
0.00146807
0.0015288
0.00160798
0.001704
0.00181417
0.00193482
0.00206147
0.00218906
0.00231158
0.00242287
0.00251816
0.00258911
0.00262792
0.00262116
0.0025778
0.00250814
0.00242119
0.00232368
0.00222077
0.00211637
0.00201339
0.00191393
0.00181946
0.00173096
0.00164905
0.00157406
0.00150611
0.00144512
0.00139084
0.00134284
0.00130055
0.00126315
0.00122966
0.00119857
0.00116789
0.00113479
0.00109515
0.00104279
0.000967133
0.000851594
0.000673135
0.0004095
0.000135627
1.99944e-05
1.52878e-05
3.41903e-05
5.81986e-05
0.000375207
0.000899758
0.00124448
0.00143907
0.00153959
0.00158464
0.00159685
0.00158965
0.00157059
0.00154513
0.00151664
0.00148803
0.00146192
0.00144118
0.00142878
0.00142779
0.00144109
0.00147134
0.00152015
0.00158811
0.0016746
0.00177786
0.00189501
0.00202207
0.00215404
0.00228549
0.00241121
0.00252566
0.00262312
0.00269677
0.00273661
0.00272855
0.00268184
0.00260737
0.00251494
0.00241167
0.00230291
0.00219266
0.0020839
0.00197877
0.00187876
0.00178488
0.00169777
0.00161778
0.00154506
0.00147954
0.00142099
0.00136904
0.00132308
0.00128234
0.00124578
0.00121194
0.00117885
0.0011437
0.00110238
0.00104865
0.000972017
0.000855691
0.000676532
0.000411889
0.000136572
2.01339e-05
1.53489e-05
3.48265e-05
5.95519e-05
0.000383117
0.000913298
0.00125869
0.00145275
0.0015525
0.00159677
0.00160855
0.00160144
0.00158316
0.00155863
0.00153148
0.0015047
0.00148105
0.00146347
0.00145504
0.00145884
0.00147777
0.00151432
0.00156988
0.00164483
0.00173834
0.00184848
0.00197229
0.00210563
0.00224288
0.00237804
0.00250656
0.00262375
0.00272467
0.00280111
0.00284248
0.00283359
0.00278381
0.00270451
0.00260661
0.00249763
0.00238308
0.00226703
0.00215251
0.00204168
0.00193608
0.00183675
0.00174436
0.00165927
0.00158166
0.00151147
0.00144852
0.00139244
0.00134269
0.00129849
0.00125885
0.00122233
0.00118695
0.0011499
0.00110702
0.00105203
0.000974547
0.000857583
0.000677944
0.000413067
0.000137081
2.02136e-05
1.54024e-05
3.55175e-05
6.11052e-05
0.000392211
0.000928927
0.00127599
0.00147005
0.00156927
0.00161307
0.0016248
0.00161793
0.0016003
0.00157675
0.00155108
0.00152627
0.00150535
0.00149138
0.00148752
0.00149679
0.00152211
0.00156563
0.00162857
0.00171103
0.00181193
0.00192908
0.00205946
0.00219915
0.00234208
0.00248152
0.00261372
0.002734
0.00283689
0.00291502
0.00295727
0.00294716
0.00289445
0.00281026
0.00270676
0.00259196
0.00247148
0.00234947
0.00222899
0.00211227
0.00200087
0.00189589
0.00179799
0.0017076
0.00162486
0.00154979
0.0014822
0.00142175
0.00136793
0.00132
0.00127696
0.00123746
0.00119951
0.00116028
0.00111562
0.00105916
0.000980617
0.000862796
0.000682347
0.000416231
0.000138345
2.04e-05
1.54803e-05
3.62212e-05
6.26415e-05
0.000401115
0.000943926
0.0012925
0.00148611
0.00158418
0.001627
0.00163829
0.00163141
0.00161428
0.00159201
0.00156807
0.00154567
0.00152795
0.00151802
0.00151904
0.00153401
0.00156579
0.00161633
0.0016867
0.00177672
0.00188496
0.00200869
0.00214439
0.00228839
0.00243575
0.00258052
0.00271801
0.00284241
0.0029479
0.00302797
0.00307015
0.00305846
0.00300316
0.00291534
0.00280715
0.00268693
0.00256062
0.00243256
0.00230595
0.00218313
0.00206573
0.00195486
0.00185125
0.00175531
0.00166724
0.00158705
0.00151459
0.00144955
0.00139144
0.00133957
0.00129298
0.00125038
0.0012098
0.00116841
0.00112203
0.00106423
0.000984835
0.000866416
0.000685482
0.000418547
0.000139293
2.05425e-05
1.55511e-05
3.69751e-05
6.43869e-05
0.000411259
0.000961131
0.00131175
0.00150523
0.00160292
0.00164528
0.00165636
0.00164957
0.0016332
0.00161218
0.00159032
0.00157068
0.00155649
0.00155093
0.00155713
0.00157816
0.00161669
0.00167457
0.00175272
0.0018508
0.00196704
0.00209803
0.00223927
0.00238716
0.00253872
0.00268901
0.00283122
0.00295986
0.00306883
0.00315083
0.00319286
0.00317859
0.00312045
0.00302859
0.00291534
0.0027894
0.00265697
0.00252262
0.00238968
0.00226056
0.00213697
0.00202005
0.00191054
0.0018089
0.00171534
0.00162988
0.00155239
0.00148258
0.00142
0.00136397
0.00131358
0.00126757
0.00122402
0.00118013
0.00113174
0.00107236
0.000991853
0.000872579
0.000690809
0.00042224
0.000140746
2.07547e-05
1.56321e-05
3.77372e-05
6.60666e-05
0.0004209
0.000977068
0.00132922
0.00152291
0.00162028
0.00166249
0.00167389
0.00166782
0.0016524
0.00163258
0.00161251
0.00159549
0.00158482
0.00158371
0.00159525
0.00162251
0.00166789
0.00173306
0.00181875
0.00192448
0.00204837
0.00218631
0.00233337
0.00248646
0.00264229
0.00279691
0.00294419
0.00307842
0.00319179
0.00327541
0.00331673
0.00330111
0.00323995
0.00314423
0.00302614
0.00289457
0.00275598
0.00261515
0.00247561
0.00233989
0.00220978
0.00208647
0.00197076
0.0018631
0.00176373
0.0016727
0.00158989
0.00151504
0.00144773
0.00138731
0.00133288
0.0012832
0.0012364
0.00118974
0.00113909
0.00107795
0.000996154
0.000876072
0.000693665
0.000424236
0.000141547
2.0875e-05
1.56931e-05
3.85674e-05
6.79746e-05
0.000431842
0.000995145
0.00134918
0.00154274
0.00163932
0.0016809
0.00169213
0.00168642
0.00167222
0.00165455
0.00163729
0.0016239
0.00161769
0.00162186
0.00163954
0.00167361
0.00172628
0.00179897
0.00189205
0.00200471
0.00213493
0.00227898
0.00243252
0.00259227
0.00275437
0.00291529
0.0030691
0.00320804
0.00332474
0.00341025
0.00345126
0.00343281
0.00336746
0.00326747
0.00314432
0.00300687
0.00286183
0.00271424
0.00256783
0.00242526
0.00228842
0.00215854
0.00203645
0.0019226
0.00181725
0.00172046
0.00163212
0.001552
0.00147969
0.0014146
0.00135585
0.00130225
0.00125194
0.00120222
0.00114898
0.00108573
0.00100224
0.000880959
0.000697507
0.000426909
0.00014261
2.10324e-05
1.57629e-05
3.94369e-05
7.00096e-05
0.000443484
0.00101438
0.00137058
0.00156422
0.00166021
0.00170156
0.00171287
0.00170781
0.00169483
0.00167902
0.00166425
0.00165417
0.00165217
0.0016615
0.00168535
0.00172639
0.00178663
0.00186716
0.0019679
0.00208752
0.0022236
0.00237302
0.00253294
0.00270055
0.00286966
0.00303548
0.00319456
0.00333902
0.00346056
0.00354904
0.00359078
0.00357051
0.00350116
0.00339635
0.00326767
0.00312396
0.00297208
0.00281733
0.00266362
0.0025138
0.00236982
0.00223301
0.00210418
0.00198383
0.00187219
0.00176932
0.00167514
0.00158943
0.00151182
0.00144174
0.00137839
0.00132055
0.00126654
0.00121364
0.00115775
0.00109235
0.00100713
0.00088467
0.000700221
0.000428806
0.000143388
2.11513e-05
1.58279e-05
4.03327e-05
7.20636e-05
0.000455164
0.00103349
0.00139174
0.00158573
0.00168173
0.00172321
0.00173513
0.00173105
0.00171943
0.00170548
0.00169354
0.00168733
0.00169028
0.0017056
0.00173634
0.00178494
0.00185315
0.00194171
0.00205017
0.00217664
0.00231867
0.0024744
0.00264115
0.00281514
0.00299077
0.00316359
0.00332921
0.00347943
0.00360548
0.00369674
0.00373917
0.00371685
0.00364392
0.00353418
0.0033994
0.00324873
0.00308941
0.002927
0.00276562
0.00260822
0.00245686
0.00231287
0.00217711
0.00205006
0.00193195
0.00182284
0.00172265
0.00163116
0.00154804
0.00147275
0.00140453
0.00134225
0.0012843
0.00122801
0.00116929
0.00110165
0.0010147
0.00089109
0.000705584
0.000432257
0.00014477
2.13544e-05
1.59064e-05
4.12792e-05
7.42456e-05
0.000467509
0.00105347
0.00141347
0.0016068
0.00170144
0.00174226
0.00175413
0.00175128
0.00174191
0.00173109
0.00172311
0.00172169
0.00173023
0.00175198
0.00178981
0.00184599
0.00192191
0.00201778
0.00213257
0.00226473
0.00241275
0.00257545
0.00275014
0.00293145
0.003115
0.00329586
0.003468
0.00362397
0.00375495
0.00384989
0.00389398
0.00387077
0.0037942
0.00367893
0.00353744
0.00337936
0.00321222
0.00304177
0.0028723
0.0027069
0.00254771
0.00239612
0.00225301
0.00211887
0.00199394
0.00187825
0.00177172
0.00167414
0.00158518
0.00150434
0.00143089
0.00136376
0.00130137
0.00124127
0.00117935
0.00110916
0.00102027
0.000895422
0.000709019
0.000434974
0.000145845
2.15129e-05
1.59721e-05
4.2283e-05
7.67186e-05
0.000481575
0.00107667
0.0014397
0.00163348
0.00172839
0.00176951
0.00178192
0.00178006
0.00177213
0.00176357
0.00175883
0.00176171
0.00177563
0.00180376
0.00184873
0.00191254
0.00199613
0.00209924
0.00222133
0.00236106
0.00251678
0.00268701
0.0028683
0.0030567
0.00324743
0.00343512
0.00361371
0.00377584
0.00391231
0.00401129
0.00405711
0.00403241
0.00395219
0.00383159
0.00368348
0.00351783
0.00334253
0.00316363
0.00298566
0.00281186
0.00264445
0.00248492
0.00233416
0.00219266
0.00206065
0.00193816
0.0018251
0.00172125
0.00162629
0.00153975
0.00146093
0.0013888
0.0013218
0.00125757
0.00119209
0.0011189
0.00102751
0.000900852
0.000712769
0.000437442
0.000146815
2.16564e-05
1.6034e-05
4.32547e-05
7.87729e-05
0.000492909
0.00109406
0.00145778
0.00165056
0.00174478
0.00178618
0.00179972
0.0018004
0.00179605
0.0017919
0.00179236
0.00180116
0.0018217
0.0018569
0.0019092
0.00198022
0.00207097
0.00218157
0.00231134
0.00245889
0.00262243
0.00280007
0.00298916
0.00318523
0.00338323
0.00357815
0.00376393
0.00393293
0.0040754
0.00417873
0.00422679
0.00420158
0.00411829
0.00399247
0.00383751
0.00366387
0.00347988
0.00329198
0.00310494
0.00292218
0.00274605
0.00257806
0.00241916
0.00226985
0.00213033
0.00200062
0.00188061
0.00177009
0.00166874
0.00157611
0.00149156
0.00141412
0.00134233
0.00127388
0.0012048
0.00112866
0.00103493
0.000906564
0.000716922
0.000439906
0.000147783
2.17993e-05
1.6092e-05
4.43893e-05
8.15625e-05
0.000508467
0.00111879
0.00148519
0.00167898
0.00177369
0.00181579
0.0018304
0.00183296
0.00183114
0.00183052
0.00183529
0.00184917
0.0018754
0.0019167
0.00197524
0.00205255
0.00214952
0.00226686
0.00240412
0.00256004
0.00273281
0.00291985
0.00311746
0.00332115
0.00352647
0.00372885
0.00392212
0.00409816
0.00424671
0.0043547
0.00440525
0.00437944
0.00429309
0.00416217
0.00400037
0.00381854
0.00362551
0.00342813
0.00323153
0.00303933
0.00285402
0.00267718
0.00250977
0.0023523
0.00220497
0.00206776
0.00194054
0.00182306
0.00171501
0.00161595
0.0015253
0.00144213
0.00136512
0.00129197
0.00121889
0.00113954
0.00104336
0.000913203
0.000722233
0.000443151
0.000149024
2.19777e-05
1.61491e-05
4.55233e-05
8.41395e-05
0.000522565
0.0011404
0.00150847
0.0017023
0.0017972
0.00184013
0.00185656
0.00186167
0.00186342
0.00186707
0.00187704
0.00189699
0.00192999
0.00197862
0.00204487
0.00213013
0.00223495
0.00235976
0.00250451
0.00266796
0.00284834
0.00304328
0.00324911
0.00346091
0.00367384
0.00388399
0.00408532
0.00426908
0.00442439
0.00453747
0.00459091
0.00456516
0.00447645
0.00434103
0.00417258
0.0039823
0.00377967
0.00357215
0.00336527
0.00316296
0.00296783
0.00278156
0.00260513
0.00243902
0.00228341
0.00213827
0.00200342
0.00187859
0.00176344
0.00165752
0.00156026
0.0014708
0.0013878
0.00130915
0.0012313
0.00114814
0.00104916
0.000917045
0.000724722
0.000444851
0.000149679
2.20726e-05
1.61874e-05
4.67952e-05
8.72775e-05
0.000539775
0.00116716
0.00153793
0.00173223
0.00182751
0.00187116
0.00188925
0.00189652
0.00190127
0.00190905
0.00192408
0.00194976
0.00198895
0.00204405
0.002117
0.00220918
0.00232135
0.00245403
0.00260655
0.00277786
0.00296669
0.00317039
0.00338463
0.00360517
0.00382798
0.00404756
0.00425739
0.0044489
0.00461078
0.00472889
0.00478529
0.00475974
0.00466904
0.0045298
0.00435506
0.00415612
0.00394333
0.00372498
0.00350716
0.00329412
0.00308866
0.00289249
0.00270662
0.00253151
0.00236731
0.00221393
0.00207117
0.00193873
0.00181624
0.00170325
0.00159918
0.00150321
0.00141409
0.00132987
0.00124718
0.00116006
0.00105793
0.000923383
0.000729129
0.000448101
0.000150869
2.22411e-05
1.62377e-05
4.8112e-05
9.04846e-05
0.000557171
0.00119375
0.00156706
0.00176181
0.00185822
0.00190356
0.0019243
0.00193495
0.00194344
0.00195539
0.00197517
0.00200629
0.00205153
0.0021132
0.00219314
0.00229279
0.00241281
0.00255313
0.00271351
0.00289337
0.00309101
0.00330331
0.00352636
0.00375611
0.0039883
0.00421698
0.00443533
0.00463484
0.00480383
0.00492749
0.00498725
0.00496219
0.00486999
0.00472815
0.00454803
0.00434039
0.0041168
0.00388684
0.00365731
0.00343282
0.00321636
0.00300971
0.00281386
0.00262924
0.00245595
0.00229387
0.00214274
0.00200223
0.00187195
0.00175145
0.00164015
0.00153728
0.00144164
0.00135125
0.00126291
0.00117089
0.00106494
0.000927704
0.000731796
0.000449488
0.000151346
2.23088e-05
1.62712e-05
4.9516e-05
9.39555e-05
0.000575845
0.00122202
0.00159793
0.00179349
0.00189012
0.00193621
0.00195886
0.00197235
0.00198468
0.00200142
0.00202676
0.00206415
0.00211617
0.00218521
0.00227303
0.00238066
0.00250844
0.00265637
0.00282441
0.00301221
0.00321831
0.00343978
0.00367267
0.0039126
0.00415493
0.00439334
0.00462093
0.00482923
0.00500575
0.00513507
0.00519808
0.00517316
0.00507895
0.00493458
0.00475041
0.00453502
0.00430047
0.00405837
0.00381656
0.00358005
0.00335203
0.00313438
0.00292808
0.00273352
0.00255075
0.00237958
0.00221971
0.00207077
0.00193234
0.00180396
0.00168508
0.00157497
0.00147253
0.00137594
0.00128203
0.00118518
0.00107527
0.000935016
0.000737142
0.000453107
0.000152679
2.24976e-05
1.63273e-05
5.10062e-05
9.77706e-05
0.000596282
0.001253
0.00163187
0.00182758
0.00192478
0.00197219
0.00199735
0.00201415
0.00203059
0.00205217
0.00208303
0.00212657
0.00218538
0.00226178
0.00235743
0.00247317
0.00260906
0.00276506
0.00294081
0.00313628
0.00335065
0.00358093
0.00382352
0.00407395
0.00432678
0.00457566
0.00481341
0.00503099
0.00521541
0.0053508
0.00541734
0.00539248
0.00529554
0.00514656
0.00495753
0.00473687
0.00449332
0.00423958
0.00398532
0.0037363
0.00349611
0.00326679
0.00304937
0.00284426
0.00265144
0.00247065
0.00230153
0.00214365
0.00199653
0.00185971
0.00173263
0.00161461
0.00150463
0.00140102
0.00130082
0.00119879
0.00108503
0.000942249
0.00074249
0.000456324
0.00015388
2.26634e-05
1.63762e-05
5.25412e-05
0.000101653
0.000616853
0.00128332
0.0016648
0.00186126
0.00195947
0.00200863
0.00203669
0.00205711
0.00207788
0.00210447
0.00214094
0.00219062
0.00225604
0.00233947
0.00244259
0.00256625
0.00271053
0.00287533
0.0030602
0.00326498
0.0034888
0.00372863
0.0039811
0.00424178
0.00450531
0.00476536
0.00501421
0.00524159
0.00543432
0.00557607
0.00564634
0.00562164
0.00552191
0.00536745
0.00517313
0.00494698
0.00469563
0.0044313
0.00416474
0.00390282
0.0036498
0.00340808
0.00317887
0.00296258
0.00275917
0.00256831
0.00238955
0.00222236
0.00206623
0.00192062
0.00178497
0.00165861
0.00154059
0.00142938
0.00132216
0.00121383
0.00109487
0.000948181
0.000745883
0.000458139
0.000154476
2.27433e-05
1.64117e-05
5.41606e-05
0.000105767
0.000638445
0.00131515
0.00169957
0.00189734
0.00199741
0.00204898
0.0020804
0.00210476
0.00213007
0.00216175
0.00220383
0.00225957
0.00233144
0.00242162
0.00253173
0.00266283
0.00281539
0.00298942
0.00318439
0.00339926
0.00363249
0.00388205
0.00414467
0.00441617
0.00469125
0.00496303
0.00522293
0.00546044
0.0056619
0.0058104
0.00588467
0.00586021
0.00575777
0.00559851
0.00539813
0.005166
0.00490825
0.00463481
0.00435604
0.0040805
0.00381374
0.0035587
0.00331681
0.00308856
0.00287388
0.00267236
0.00248343
0.00230647
0.00214086
0.00198601
0.00184133
0.00170618
0.00157973
0.0014606
0.00134627
0.00123183
0.00110795
0.0009576
0.000752392
0.000462061
0.000155871
2.29344e-05
1.64646e-05
5.58763e-05
0.000110183
0.000661445
0.00134875
0.00173621
0.00193601
0.00203768
0.00209162
0.00212617
0.00215441
0.00218436
0.00222138
0.00226941
0.00233159
0.00241051
0.00250831
0.00262642
0.00276565
0.00292654
0.00310911
0.00331302
0.00353741
0.00378075
0.00404092
0.00431471
0.00459779
0.00488469
0.00516846
0.00544017
0.0056885
0.00589928
0.00605499
0.00613351
0.00610918
0.00600342
0.00583809
0.00563104
0.00539196
0.00512903
0.0048493
0.00455958
0.00426993
0.00398853
0.00371935
0.00346406
0.00322322
0.0029967
0.00278401
0.00258446
0.0023973
0.00222179
0.00205723
0.00190294
0.00175828
0.00162245
0.00149424
0.00137141
0.00124945
0.00111946
0.000964684
0.000756569
0.000464282
0.000156579
2.30279e-05
1.65009e-05
5.77028e-05
0.000115045
0.000686591
0.0013854
0.00177642
0.00197783
0.00208106
0.00213751
0.00217527
0.00220741
0.0022419
0.00228404
0.00233775
0.00240614
0.0024916
0.00259621
0.00272146
0.00286826
0.00303733
0.00322934
0.00344369
0.00367901
0.00393351
0.00420518
0.00449081
0.00478623
0.0050858
0.00538222
0.00566613
0.00592571
0.00614634
0.00630975
0.00639292
0.00636901
0.00626021
0.00608886
0.00587308
0.00562576
0.00535451
0.005067
0.00476937
0.0044684
0.00417326
0.00388996
0.00362095
0.003367
0.00312807
0.00290362
0.00269291
0.00249508
0.00230927
0.00213467
0.00197052
0.00181609
0.00167061
0.00153296
0.00140117
0.00127112
0.00113437
0.000974507
0.000762921
0.000468012
0.000157884
2.32097e-05
1.65643e-05
5.95907e-05
0.000120084
0.000712397
0.0014227
0.00181742
0.00202076
0.00212597
0.00218539
0.00222687
0.00226347
0.00230308
0.00235093
0.00241084
0.00248587
0.00257832
0.00269016
0.00282288
0.00297757
0.00315504
0.00335574
0.00357952
0.00382522
0.00409101
0.00437447
0.00467253
0.00498101
0.00529408
0.00560403
0.00590103
0.00617277
0.00640397
0.00657564
0.00666381
0.00664037
0.00652832
0.00635084
0.0061271
0.00587013
0.0055909
0.00529578
0.00498993
0.00467874
0.00437048
0.00407274
0.00378931
0.00352146
0.00326931
0.00303233
0.00280972
0.00260054
0.00240381
0.0022186
0.00204404
0.00187934
0.00172367
0.00157602
0.0014346
0.00129571
0.00115136
0.000985712
0.000770395
0.000472628
0.00015962
2.34563e-05
1.66478e-05
6.15563e-05
0.000125424
0.000739495
0.00146157
0.00186007
0.00206545
0.00217275
0.00223525
0.0022805
0.00232154
0.00236621
0.00241969
0.00248574
0.00256733
0.00266687
0.00278618
0.0029267
0.00308956
0.00327553
0.00348532
0.00371905
0.00397564
0.00425339
0.00454981
0.00486148
0.0051839
0.00551103
0.00583498
0.0061456
0.00643006
0.0066724
0.00685283
0.00694643
0.00692381
0.00680874
0.00662499
0.00639278
0.00612699
0.00583714
0.00553203
0.00521749
0.00489821
0.00457927
0.00426758
0.00396917
0.00368668
0.00342057
0.00317039
0.00293526
0.00271415
0.00250595
0.00230962
0.00212418
0.00194873
0.00178245
0.00162437
0.00147295
0.00132486
0.00117265
0.00100091
0.000780771
0.000479221
0.000162174
2.38192e-05
1.67527e-05
6.35908e-05
0.000130978
0.000767395
0.00150122
0.00190356
0.00211118
0.00222087
0.00228675
0.00233606
0.00238177
0.00243166
0.00249086
0.00256308
0.00265123
0.00275769
0.00288437
0.0030327
0.0032039
0.00339914
0.00361914
0.00386344
0.00413113
0.00442076
0.00473
0.00505552
0.00539268
0.00573512
0.00607444
0.00639989
0.00669804
0.00695229
0.00714209
0.00724158
0.00722003
0.00710212
0.00691244
0.00667232
0.00639738
0.00609824
0.00578341
0.00545801
0.00512629
0.00479667
0.00447348
0.00416084
0.00386338
0.00358272
0.00331868
0.00307039
0.00283671
0.00261641
0.00240829
0.00221122
0.0020242
0.00184632
0.00167667
0.00151393
0.00135525
0.00119389
0.00101495
0.000789842
0.000484819
0.000164329
2.41291e-05
1.68517e-05
6.57047e-05
0.000136798
0.000796318
0.00154195
0.00194821
0.00215827
0.00227063
0.00234017
0.00239367
0.00244407
0.00249909
0.00256382
0.00264197
0.00273648
0.00284976
0.0029838
0.00314033
0.00332069
0.00352582
0.00375616
0.00401156
0.00429134
0.00459414
0.00491763
0.00525827
0.00561107
0.00596934
0.00632438
0.00666504
0.00697736
0.00724405
0.00744369
0.00754942
0.00752908
0.00740836
0.00721241
0.00696371
0.00667785
0.00636711
0.00604089
0.00570555
0.00536531
0.00502434
0.00468993
0.00436495
0.00405269
0.00375687
0.00347822
0.00321607
0.00296924
0.00273636
0.00251607
0.00230707
0.00210818
0.0019184
0.00173679
0.00156218
0.00139213
0.00122061
0.00103342
0.00080225
0.000492679
0.000167395
2.45716e-05
1.69818e-05
6.79054e-05
0.00014289
0.000826247
0.00158372
0.00199398
0.00220673
0.00232211
0.00239565
0.00245359
0.0025089
0.00256925
0.00263971
0.00272399
0.00282501
0.00294528
0.00308695
0.00325179
0.00344119
0.00365612
0.00389708
0.00416406
0.00445647
0.00477296
0.0051111
0.00546732
0.00583648
0.00621161
0.00658352
0.00694055
0.00726811
0.00754814
0.00775834
0.00787072
0.00785166
0.00772803
0.00752605
0.00726888
0.00697247
0.00664972
0.00631112
0.00596222
0.00561036
0.00526018
0.00491516
0.00457896
0.00425383
0.00394304
0.00364921
0.00337253
0.00311193
0.00286593
0.00263296
0.00241152
0.00220024
0.00199792
0.00180356
0.00161605
0.00143337
0.00125021
0.00105329
0.000814973
0.000500718
0.000170579
2.50372e-05
1.71362e-05
7.02171e-05
0.000149418
0.00085798
0.00162772
0.00204201
0.00225726
0.0023754
0.00245266
0.00251478
0.00257476
0.00264028
0.00271643
0.002807
0.0029149
0.00304256
0.00319217
0.00336558
0.00356426
0.00378937
0.00404154
0.0043209
0.00462691
0.00495814
0.00531212
0.00568503
0.00607145
0.00646413
0.00685356
0.00722765
0.00757117
0.00786529
0.0080867
0.00820629
0.00818876
0.00806212
0.00785362
0.00758769
0.00728106
0.00694643
0.00659369
0.00623084
0.00586461
0.00550179
0.0051453
0.00479681
0.00446074
0.00413851
0.00383123
0.00354048
0.00326602
0.00300659
0.00276062
0.00252646
0.00230254
0.00208748
0.00188012
0.00167935
0.00148338
0.00128756
0.00107948
0.000833031
0.000512539
0.000175326
2.57315e-05
1.73552e-05
7.26304e-05
0.000156547
0.000892514
0.00167592
0.00209454
0.00231155
0.00243179
0.00251226
0.0025783
0.00264285
0.00271353
0.00279544
0.0028923
0.00300686
0.0031418
0.00329945
0.00348181
0.00369048
0.0039266
0.00419085
0.00448334
0.00480352
0.00514995
0.00552009
0.00591008
0.00631441
0.0067256
0.00713373
0.00752609
0.00788671
0.00819588
0.0084293
0.00855665
0.00854095
0.00841134
0.00819613
0.0079209
0.0076032
0.00725649
0.0068909
0.00651433
0.00613456
0.00575764
0.00538883
0.00503039
0.00468331
0.00434906
0.00402862
0.00372322
0.00343366
0.00315952
0.00289942
0.00265159
0.00241428
0.00218589
0.00196506
0.00175065
0.00154108
0.00133224
0.00111306
0.000857259
0.000528152
0.000181527
2.66305e-05
1.76148e-05
7.50078e-05
0.000163546
0.000926063
0.00172232
0.00214432
0.00236373
0.00248677
0.00257119
0.00264193
0.00271182
0.00278835
0.00287654
0.00298011
0.00310195
0.00324478
0.00341096
0.00360253
0.00382122
0.00406833
0.00434469
0.00465053
0.00498536
0.00534771
0.00573501
0.00614328
0.00656679
0.00699767
0.00742554
0.0078371
0.00821569
0.00854072
0.00878687