/*--------------------------------*- C++ -*----------------------------------*\
| =========                 |                                                 |
| \\      /  F ield         | OpenFOAM: The Open Source CFD Toolbox           |
|  \\    /   O peration     | Version:  2412                                  |
|   \\  /    A nd           | Website:  www.openfoam.com                      |
|    \\/     M anipulation  |                                                 |
\*---------------------------------------------------------------------------*/
FoamFile
{
    version     2.0;
    format      ascii;
    arch        "LSB;label=32;scalar=64";
    class       volScalarField;
    location    "1714";
    object      nut;
}
// * * * * * * * * * * * * * * * * * * * * * * * * * * * * * * * * * * * * * //

dimensions      [0 2 -1 0 0 0 0];

internalField   nonuniform List<scalar> 
32240
(
8.75848e-08
8.35668e-07
1.51168e-05
7.06956e-05
0.000152747
0.000258977
0.000387947
0.00053786
0.000708231
0.00090035
0.00111494
0.00134294
0.00158142
0.00183315
0.0020946
0.00236189
0.00263421
0.00291255
0.00320142
0.00350976
0.00385119
0.00424208
0.00469875
0.00523511
0.00585538
0.00655369
0.00731558
0.0081203
0.00894309
0.00975698
0.0105017
0.011073
0.0113921
0.011349
0.0110237
0.0105085
0.00987939
0.00918745
0.00846063
0.0077402
0.00704067
0.00636763
0.0057248
0.00511539
0.00454176
0.00400498
0.00350775
0.0030509
0.00263422
0.00225671
0.00191657
0.0016119
0.00134049
0.00110018
0.000888662
0.000703512
0.000542165
0.000400079
0.000278017
0.000178387
9.99729e-05
3.98536e-05
7.08587e-06
3.62179e-07
4.65249e-08
9.02213e-08
8.64798e-07
1.55719e-05
7.21688e-05
0.000155285
0.000262867
0.000393426
0.000545311
0.000718289
0.000913913
0.00113329
0.00136801
0.00161159
0.00186738
0.00213286
0.0024041
0.0026831
0.00296639
0.00326108
0.00357704
0.00392856
0.00433282
0.00480789
0.00536563
0.00601006
0.00673579
0.00752655
0.00835624
0.00919011
0.00998162
0.0107061
0.0112931
0.0116224
0.0115654
0.0112146
0.0106668
0.0100054
0.00929282
0.008583
0.00787396
0.00716794
0.00647931
0.00582045
0.00519782
0.00461477
0.00407313
0.00357083
0.00310731
0.00268191
0.00229699
0.00195022
0.00163904
0.00136137
0.00111553
0.000899385
0.000710549
0.000546501
0.000402579
0.000279356
0.000179087
0.000100345
4.00685e-05
7.12773e-06
3.64034e-07
4.64806e-08
9.09763e-08
8.77993e-07
1.57855e-05
7.28385e-05
0.000156172
0.000264098
0.000395217
0.000547976
0.000722297
0.000919833
0.00114122
0.00137593
0.00161976
0.0018733
0.0021402
0.00240912
0.00268878
0.00297377
0.00327191
0.003594
0.00395467
0.00437003
0.00485558
0.00542105
0.00606888
0.00679358
0.00758303
0.00841899
0.00927483
0.0101106
0.0108581
0.0114366
0.0117477
0.0116718
0.0113068
0.0107545
0.0100958
0.00938416
0.00864968
0.0079171
0.00720192
0.00651256
0.0058542
0.00523067
0.00464462
0.00409767
0.00359086
0.00312437
0.00269761
0.00230881
0.00195967
0.00164778
0.00136856
0.00112097
0.00090326
0.000713171
0.000548152
0.000404126
0.000280186
0.000179431
0.000100466
4.01326e-05
7.14376e-06
3.65058e-07
4.67127e-08
9.27651e-08
8.98992e-07
1.61149e-05
7.39141e-05
0.000157989
0.000266902
0.000399255
0.000553648
0.000730243
0.000930915
0.0011556
0.00138999
0.00163588
0.00189148
0.00215823
0.00243472
0.002715
0.00300389
0.00330876
0.00364107
0.00401569
0.00444864
0.0049548
0.00554284
0.00621465
0.00696476
0.00778127
0.00864537
0.00952831
0.010385
0.011152
0.0117498
0.0120714
0.0119855
0.0115948
0.0110047
0.0103033
0.00955208
0.00879028
0.00803871
0.00730831
0.00660579
0.00593594
0.00530235
0.00470755
0.00415302
0.00363919
0.00316592
0.00273272
0.00233886
0.00198304
0.00166626
0.00138275
0.00113155
0.000910837
0.00071834
0.000551475
0.000406436
0.000281527
0.000180177
0.00010086
4.03005e-05
7.17912e-06
3.66756e-07
4.67353e-08
9.4169e-08
9.16646e-07
1.63904e-05
7.47809e-05
0.000159301
0.000268822
0.000401943
0.000557379
0.000735527
0.000938456
0.00116539
0.00139798
0.00164216
0.00190092
0.00217266
0.00244707
0.0027282
0.00301987
0.00332984
0.00366997
0.00405512
0.0045012
0.0050219
0.00562525
0.00631291
0.00708004
0.007916
0.00880326
0.00971283
0.0105938
0.011366
0.0119584
0.0122728
0.0121738
0.0117669
0.0111612
0.0104454
0.00967928
0.00890119
0.00813339
0.00738821
0.0066729
0.00599221
0.00534949
0.00474698
0.00418592
0.00366669
0.00318895
0.00275195
0.0023546
0.00199566
0.00167653
0.00139099
0.0011379
0.000915509
0.000721586
0.000553556
0.000408106
0.000282426
0.000180622
0.000101093
4.03908e-05
7.20059e-06
3.67925e-07
4.68578e-08
9.58055e-08
9.37655e-07
1.67198e-05
7.58455e-05
0.000161066
0.000271545
0.000405918
0.000563051
0.000743548
0.000949446
0.00117837
0.00141239
0.00165827
0.00191848
0.00219208
0.00246952
0.00275464
0.00305209
0.00337049
0.00372228
0.00412224
0.00458618
0.00512644
0.0057504
0.00645951
0.00724971
0.00811223
0.00903242
0.00998367
0.010911
0.0116813
0.0122656
0.0125791
0.0124639
0.012031
0.0113944
0.010647
0.00985203
0.00904939
0.00826152
0.00750004
0.00677121
0.0060789
0.0054259
0.00481409
0.00424461
0.00371779
0.00323325
0.00279007
0.00238708
0.00202292
0.00169745
0.00140686
0.00114946
0.000923613
0.00072702
0.000556989
0.00041061
0.000283783
0.000181285
0.000101406
4.05258e-05
7.23067e-06
3.6946e-07
4.69464e-08
9.73899e-08
9.57011e-07
1.70175e-05
7.6768e-05
0.000162498
0.000273684
0.000408973
0.000567348
0.000749529
0.000957348
0.00118748
0.00142392
0.00167471
0.00193329
0.00220576
0.00248419
0.00277153
0.00307316
0.00339839
0.00376005
0.00417294
0.00465236
0.00520989
0.00585252
0.00658205
0.00739603
0.00828896
0.00925253
0.0102693
0.0112772
0.0120187
0.0125508
0.0128552
0.0127247
0.012271
0.0116111
0.0108395
0.0100201
0.00919388
0.00838433
0.00760371
0.00685835
0.00615196
0.00548698
0.00486501
0.00428685
0.0037526
0.00326172
0.00281316
0.0024055
0.0020368
0.00170775
0.0014158
0.00115647
0.000928766
0.000730563
0.000559231
0.000412471
0.000284721
0.000181668
0.000101553
4.05912e-05
7.24767e-06
3.70403e-07
4.70408e-08
9.91455e-08
9.80367e-07
1.7382e-05
7.79363e-05
0.000164467
0.000276723
0.000413347
0.000573488
0.000758175
0.00096878
0.00119824
0.00143388
0.0016862
0.00195272
0.00222724
0.00250839
0.00280038
0.0031091
0.00344436
0.00381907
0.00424818
0.00474593
0.00532312
0.00598616
0.00673722
0.0075759
0.00850165
0.00951998
0.0106799
0.0118696
0.0125529
0.0128978
0.0131704
0.0130162
0.0125348
0.0118464
0.0110474
0.0102027
0.00935379
0.00852452
0.00772684
0.00696671
0.00624732
0.00557072
0.00493824
0.00435052
0.00380757
0.00330877
0.00285299
0.00243882
0.0020647
0.00172892
0.00143229
0.00116908
0.000937957
0.000736907
0.000563348
0.000415059
0.000286325
0.000182431
0.000101877
4.07276e-05
7.27893e-06
3.72042e-07
4.71566e-08
1.00867e-07
1.0025e-06
1.77222e-05
7.90002e-05
0.000166166
0.000279264
0.00041693
0.000578447
0.000765207
0.000978414
0.00120776
0.00144425
0.00169672
0.00196181
0.00224096
0.00252579
0.00282241
0.00313758
0.00348178
0.00386821
0.00431202
0.00482678
0.00542297
0.00610712
0.00688237
0.00775059
0.00871537
0.00978774
0.0109921
0.01223
0.013028
0.0132742
0.013511
0.0133309
0.0128193
0.0121004
0.0112724
0.0103998
0.0095246
0.00867103
0.00785179
0.00707288
0.00633726
0.00564664
0.00500207
0.00440394
0.00385203
0.00334554
0.00288322
0.00246356
0.0020849
0.00174569
0.00144475
0.00117837
0.000944642
0.000741439
0.000566188
0.000416636
0.000287419
0.000182891
0.000102018
4.07918e-05
7.29588e-06
3.73016e-07
4.72671e-08
1.02654e-07
1.02634e-06
1.80896e-05
8.01545e-05
0.000168024
0.000282076
0.000420917
0.000584103
0.000773332
0.000989714
0.00122107
0.00146065
0.00171494
0.00198232
0.00226399
0.00255334
0.00285588
0.00317936
0.00353477
0.00393557
0.00439657
0.00493055
0.00554745
0.00625373
0.00705358
0.00795145
0.00895657
0.0100985
0.0114948
0.0126769
0.0134724
0.0136692
0.0138648
0.013652
0.013102
0.0123489
0.011493
0.0105957
0.0096983
0.00882489
0.00798793
0.00719321
0.00644333
0.00573974
0.00508329
0.00447431
0.00391256
0.0033972
0.00292692
0.00250007
0.00211484
0.00176926
0.00146358
0.00119265
0.000955089
0.000748767
0.000571086
0.0004197
0.000289593
0.000184073
0.000102595
4.10217e-05
7.34653e-06
3.75636e-07
4.74382e-08
1.04422e-07
1.04838e-06
1.84214e-05
8.11374e-05
0.000169462
0.000284117
0.000423774
0.000588316
0.000779821
0.000998431
0.0012273
0.00147386
0.00173294
0.00200428
0.00228428
0.00257601
0.00288364
0.00321499
0.00358117
0.00399594
0.00447355
0.00502658
0.00566492
0.00639571
0.00722468
0.0081582
0.00920482
0.0103807
0.0117802
0.012826
0.0138096
0.0140786
0.0142772
0.0140364
0.0134339
0.0126325
0.0117412
0.0108133
0.00988842
0.00899008
0.00813083
0.00731639
0.00654911
0.00583015
0.00516011
0.00453914
0.00396685
0.00344226
0.00296389
0.00252995
0.0021385
0.00178777
0.00147798
0.00120357
0.000962999
0.000754195
0.0005746
0.000421807
0.000291074
0.000184826
0.000102946
4.11565e-05
7.3779e-06
3.77326e-07
4.75793e-08
1.06348e-07
1.07411e-06
1.88119e-05
8.2325e-05
0.000171346
0.000286954
0.000428004
0.000594794
0.000789747
0.00101227
0.00123958
0.00148358
0.00174455
0.00202179
0.00230736
0.00260554
0.00292124
0.00326297
0.00364214
0.0040728
0.00456863
0.00514206
0.00580323
0.00656046
0.007422
0.0083979
0.00949571
0.0106842
0.0119645
0.0131356
0.0139901
0.0144511
0.0147126
0.0144552
0.0137777
0.0129072
0.0119797
0.0110244
0.0100766
0.00915822
0.00828088
0.00744985
0.00666729
0.00593417
0.00525099
0.00461789
0.0040345
0.00349994
0.00301279
0.00257119
0.00217302
0.00181621
0.00149969
0.00121982
0.000974769
0.000762388
0.000580035
0.000425173
0.000293407
0.00018602
0.000103494
4.137e-05
7.42527e-06
3.79799e-07
4.77468e-08
1.08274e-07
1.09804e-06
1.91666e-05
8.33633e-05
0.000172832
0.000289109
0.000431237
0.000599675
0.000796655
0.0010194
0.00125165
0.00149745
0.00176077
0.00204025
0.00232992
0.00263325
0.002956
0.00330725
0.00369897
0.00414516
0.00465943
0.00525428
0.00594055
0.00672857
0.0076309
0.00866813
0.00987017
0.0110892
0.0123226
0.0133353
0.0142513
0.0148705
0.0152771
0.015034
0.014231
0.0132275
0.0122504
0.0112592
0.0102827
0.00933943
0.00843988
0.00758881
0.0067882
0.0060388
0.00534089
0.00469445
0.00409902
0.00355367
0.00305698
0.00260707
0.00220175
0.00183851
0.00151683
0.001233
0.000984295
0.000768894
0.000584176
0.000427524
0.000295087
0.000186737
0.000103721
4.14632e-05
7.44877e-06
3.8114e-07
4.78898e-08
1.10366e-07
1.12556e-06
1.95774e-05
8.44946e-05
0.000174777
0.000292171
0.000435925
0.000606791
0.00080669
0.00103011
0.00126617
0.00151662
0.00178584
0.00206662
0.00236021
0.00266956
0.00300087
0.00336351
0.0037699
0.0042337
0.00476851
0.00538705
0.00610127
0.0069238
0.00787111
0.00898292
0.0103984
0.0117029
0.0128758
0.0138307
0.0146469
0.0153048
0.0159687
0.0157812
0.014849
0.0135774
0.0125199
0.0114899
0.0104875
0.00952312
0.00860469
0.00773612
0.00691912
0.00615439
0.00544215
0.00478233
0.0041745
0.00361774
0.00311067
0.00265146
0.00223796
0.00186793
0.00153888
0.0012503
0.000997266
0.000778158
0.000590476
0.000431524
0.000298065
0.000188341
0.000104479
4.1755e-05
7.51301e-06
3.84482e-07
4.81081e-08
1.12495e-07
1.15273e-06
1.99762e-05
8.54927e-05
0.00017657
0.000294976
0.000440203
0.000613443
0.000816099
0.00103839
0.00127445
0.00153131
0.00180333
0.00208758
0.00238624
0.00270252
0.00304301
0.00341748
0.00383875
0.0043206
0.00487727
0.00552284
0.00627205
0.00714093
0.00813828
0.00928584
0.0107335
0.0120822
0.0133548
0.0144105
0.0150365
0.0156966
0.0163598
0.0162537
0.0152947
0.0139463
0.012817
0.0117437
0.0107099
0.00971995
0.00877913
0.00789029
0.00705466
0.00627272
0.0055446
0.00487017
0.00424898
0.00368011
0.00316214
0.00269321
0.00227114
0.00189368
0.00155867
0.00126529
0.00100834
0.00078595
0.000595676
0.000434744
0.000300463
0.000189571
0.000105028
4.19625e-05
7.56001e-06
3.86995e-07
4.83033e-08
1.14775e-07
1.18364e-06
2.04337e-05
8.66795e-05
0.000178729
0.000298378
0.000445599
0.000622044
0.00082848
0.00104906
0.00128664
0.00154446
0.00182299
0.00211351
0.00241932
0.00274429
0.00309552
0.00348345
0.00392108
0.00442279
0.00500416
0.00568259
0.00648079
0.00743385
0.00852128
0.00966754
0.0109293
0.0124044
0.0137738
0.0148567
0.0154276
0.0161077
0.0168045
0.0164921
0.0156714
0.0142842
0.0131065
0.0119954
0.0109329
0.00991978
0.00895893
0.00805192
0.00719918
0.00640091
0.00565723
0.00496814
0.00433329
0.00375184
0.00322243
0.00274319
0.00231194
0.00192633
0.00158405
0.00128468
0.0010227
0.000796189
0.000602685
0.000439288
0.00030375
0.000191403
0.000105946
4.2307e-05
7.63407e-06
3.90807e-07
4.85294e-08
1.17078e-07
1.21326e-06
2.08622e-05
8.77192e-05
0.0001806
0.000301486
0.00045054
0.000629721
0.000839917
0.00106398
0.00130635
0.00156555
0.00184641
0.00214131
0.0024531
0.00278612
0.00314788
0.00354931
0.0040036
0.00452592
0.00513373
0.00584933
0.00670962
0.00780718
0.00895051
0.0101632
0.0113463
0.0127236
0.0139125
0.0149917
0.0157582
0.0164373
0.0169341
0.0167582
0.0159972
0.0146311
0.0134118
0.0122639
0.0111706
0.0101314
0.00914778
0.00822023
0.00734852
0.00653243
0.00577201
0.00506729
0.004418
0.00382338
0.00328213
0.00279242
0.00235204
0.00195854
0.00160948
0.0013032
0.00103588
0.000805162
0.000608461
0.00044275
0.000305645
0.000192522
0.000106438
4.24808e-05
7.67273e-06
3.92885e-07
4.86929e-08
1.19588e-07
1.24694e-06
2.13511e-05
8.89596e-05
0.000182898
0.000305265
0.000456493
0.000638593
0.000850323
0.00107298
0.00131783
0.0015849
0.00187026
0.00217185
0.00249191
0.00283517
0.00320973
0.00362692
0.00410049
0.00464652
0.00528394
0.00603716
0.0069412
0.00807901
0.00927094
0.0105358
0.0117012
0.0129477
0.0142767
0.0154107
0.0161708
0.0167926
0.0171295
0.0168798
0.0161332
0.0149199
0.0136982
0.0125266
0.0114082
0.0103457
0.00934127
0.00839469
0.00750511
0.00667197
0.00589522
0.00517491
0.00451086
0.00390245
0.00334852
0.00284734
0.00239679
0.00199436
0.00163728
0.00132445
0.00105139
0.000815937
0.000615548
0.000447096
0.000308067
0.000194044
0.000107116
4.27202e-05
7.72529e-06
3.95652e-07
4.88829e-08
1.22215e-07
1.28284e-06
2.18697e-05
9.02826e-05
0.000185359
0.000309315
0.000462884
0.000648198
0.000861035
0.00108645
0.00133515
0.00160775
0.00189738
0.00220483
0.00253255
0.00288589
0.00327382
0.0037083
0.00420418
0.00477911
0.00545435
0.00625824
0.00720518
0.00832596
0.00943809
0.0107315
0.0121605
0.0133386
0.0146232
0.0157608
0.0165907
0.0171954
0.0174442
0.0171186
0.0162691
0.0151473
0.0139669
0.0127916
0.0116536
0.0105682
0.00954165
0.0085746
0.00766613
0.00681528
0.00602164
0.00528511
0.00460559
0.00398263
0.00341527
0.00290195
0.0024406
0.00202878
0.00166391
0.00134319
0.00106553
0.000825834
0.000622
0.000450967
0.000310112
0.000195352
0.000107629
4.28746e-05
7.76211e-06
3.97697e-07
4.90574e-08
1.2492e-07
1.31886e-06
2.23838e-05
9.15707e-05
0.000187765
0.000313373
0.000469395
0.000658074
0.000874913
0.00110579
0.00135956
0.00163329
0.0019271
0.00224113
0.002578
0.00294363
0.00334768
0.00380325
0.0043273
0.00494088
0.00567196
0.00656981
0.00754964
0.0086547
0.00980611
0.0111352
0.01257
0.0137361
0.0149934
0.0161429
0.0170239
0.0176099
0.0177877
0.0173262
0.0164979
0.0154291
0.0142521
0.0130601
0.0119002
0.010793
0.0097457
0.00875964
0.00783336
0.00696554
0.00615551
0.00540304
0.00470804
0.00407027
0.00348898
0.00296278
0.00248974
0.00206752
0.00169359
0.00136548
0.00108212
0.000837709
0.000629985
0.00045606
0.000313156
0.000197381
0.000108614
4.31689e-05
7.83236e-06
4.01316e-07
4.92729e-08
1.27778e-07
1.35701e-06
2.29241e-05
9.29334e-05
0.000190299
0.000317539
0.000475997
0.000667553
0.000881549
0.00111391
0.00137283
0.00165318
0.00195452
0.00227752
0.00262548
0.00300543
0.00342828
0.0039095
0.00447108
0.00514188
0.00593034
0.00682142
0.00779621
0.00880103
0.0100488
0.0113896
0.0127654
0.0141031
0.0154219
0.016604
0.0174949
0.0180585
0.0181875
0.0177505
0.0168754
0.0157606
0.0145529
0.0133358
0.0121525
0.0110227
0.00995434
0.00894849
0.00800383
0.0071187
0.00629209
0.00552355
0.00481293
0.00416007
0.00356448
0.00302501
0.00253994
0.00210705
0.00172382
0.00138754
0.00109708
0.000848439
0.000637012
0.000460305
0.000315473
0.000198845
0.000109254
4.34505e-05
7.88537e-06
4.04088e-07
4.94481e-08
1.30808e-07
1.4003e-06
2.35432e-05
9.4548e-05
0.000193358
0.000322647
0.000484357
0.000680511
0.000899358
0.00113706
0.00139921
0.00168373
0.00199121
0.00232284
0.00268276
0.00307927
0.00352514
0.00403881
0.00465577
0.00535904
0.00615072
0.00706816
0.00801346
0.00910324
0.0103264
0.0116615
0.0130792
0.0145058
0.0158695
0.017067
0.0179807
0.0185792
0.0187126
0.0181934
0.017258
0.0161034
0.0148626
0.0136169
0.0124087
0.0112566
0.0101674
0.00914218
0.00817955
0.00727748
0.00643456
0.00565013
0.00492398
0.00425605
0.003646
0.00309294
0.00259535
0.00215122
0.00175816
0.00141369
0.00111528
0.000861078
0.000645335
0.000465391
0.000318236
0.00020064
0.00010986
4.36588e-05
7.93201e-06
4.0657e-07
4.96109e-08
1.33734e-07
1.43583e-06
2.40238e-05
9.55832e-05
0.000195203
0.000325904
0.000490292
0.000689692
0.000905808
0.00114606
0.00141489
0.00170779
0.00202435
0.00236756
0.00274271
0.00316069
0.00364064
0.00418949
0.00482898
0.00556712
0.00641043
0.00735647
0.00838102
0.00946535
0.010682
0.0120503
0.0134785
0.0149116
0.0162769
0.0174838
0.0184551
0.0190759
0.0191943
0.0186609
0.0176874
0.0164838
0.0151965
0.0139126
0.0126739
0.0114966
0.0103853
0.00933988
0.00835841
0.00743872
0.0065791
0.00577861
0.00503687
0.00435378
0.00372914
0.00316222
0.00265175
0.0021959
0.00179251
0.00143925
0.00113399
0.00087394
0.000653725
0.000470553
0.000321163
0.000202395
0.000110503
4.38443e-05
7.97853e-06
4.09033e-07
4.97608e-08
1.3716e-07
1.48466e-06
2.47036e-05
9.72893e-05
0.000198468
0.000331766
0.000500304
0.000704724
0.000921059
0.00116527
0.00143781
0.00174013
0.00206829
0.00242534
0.00281797
0.00325818
0.00375419
0.00432829
0.00495977
0.00569223
0.00653656
0.00749105
0.00854997
0.0097266
0.0110402
0.0124541
0.013895
0.0153372
0.0167293
0.0179743
0.0189674
0.019615
0.0197432
0.0191744
0.0181499
0.0168915
0.0155486
0.0142193
0.0129462
0.011742
0.0106085
0.0095432
0.00854311
0.00760568
0.00672916
0.00591253
0.00515523
0.00445699
0.00381759
0.00323649
0.00271269
0.00224466
0.00183036
0.00146747
0.00115487
0.000887699
0.000662791
0.000476248
0.000324503
0.000204238
0.000111496
4.41234e-05
8.03995e-06
4.12139e-07
4.99077e-08
1.40578e-07
1.52948e-06
2.53062e-05
9.86845e-05
0.000201139
0.000336592
0.000508376
0.000715073
0.000936165
0.00118536
0.00146749
0.00177697
0.00211596
0.00248822
0.00290101
0.00336329
0.0038834
0.00448588
0.00516192
0.00590822
0.00676578
0.00775229
0.00884241
0.0100684
0.011435
0.0129656
0.0144152
0.0157872
0.0171541
0.0184105
0.0194622
0.0201586
0.0202973
0.0197121
0.0186536
0.0173458
0.0159338
0.0145457
0.0132305
0.0119952
0.010837
0.00975075
0.00873146
0.0077758
0.00688184
0.00604849
0.0052752
0.00456162
0.00390743
0.00331213
0.00277488
0.00229437
0.00186884
0.00149606
0.00117367
0.000899047
0.000669513
0.000480178
0.000326676
0.00020523
0.000111847
4.42793e-05
8.07006e-06
4.13662e-07
4.99959e-08
1.44416e-07
1.58428e-06
2.60512e-05
0.000100553
0.000204806
0.000343149
0.000519087
0.000727878
0.000954261
0.00120734
0.00149223
0.00180988
0.00216227
0.00255251
0.00298557
0.00347003
0.00401497
0.00464097
0.00532856
0.00612018
0.00702754
0.00802682
0.00913044
0.010402
0.0118329
0.013301
0.0147951
0.0162402
0.0176266
0.0189298
0.0200292
0.0207513
0.0208956
0.0202961
0.0192185
0.0178815
0.0163728
0.0148983
0.0135289
0.012257
0.0110717
0.00996353
0.00892499
0.00795139
0.00704017
0.00619006
0.00540049
0.00467116
0.00400183
0.00339206
0.00284104
0.00234756
0.00190999
0.00152639
0.00119453
0.000913163
0.000678487
0.000485897
0.000329873
0.000206783
0.000112465
4.46324e-05
8.12693e-06
4.16536e-07
5.01207e-08
1.48387e-07
1.6402e-06
2.68001e-05
0.000102378
0.000208394
0.000349586
0.000529834
0.000741846
0.000975045
0.00123958
0.00153583
0.00186349
0.00222554
0.00262958
0.00307916
0.00358183
0.00414163
0.0047738
0.00550165
0.00632338
0.00724046
0.00826214
0.00943352
0.0107542
0.0122107
0.0136856
0.0152159
0.0167312
0.0181542
0.0194757
0.0206007
0.0213506
0.0215104
0.0209181
0.0198672
0.0186071
0.0169397
0.0152989
0.0138484
0.0125294
0.0113118
0.0101801
0.00912229
0.00813109
0.00720274
0.00633566
0.00552936
0.00478372
0.00409864
0.00347384
0.00290872
0.00240224
0.00195298
0.00155912
0.00121847
0.00092845
0.000687304
0.000490352
0.000332014
0.000207723
0.000112861
4.47237e-05
8.14452e-06
4.17492e-07
5.01932e-08
1.52621e-07
1.70067e-06
2.76014e-05
0.000104356
0.000212351
0.000356901
0.000541785
0.000756355
0.000994744
0.00126602
0.00157131
0.00191122
0.00228591
0.0027068
0.00316973
0.00368614
0.00426963
0.0049371
0.00569489
0.00654059
0.0074739
0.00852047
0.00972377
0.0110793
0.0125893
0.0141241
0.0157181
0.0173032
0.0187118
0.0200581
0.0212165
0.0219884
0.0221587
0.0215788
0.0205891
0.0195586
0.0178089
0.0158348
0.014205
0.0128182
0.0115597
0.010401
0.00932326
0.0083151
0.0073706
0.00648726
0.00566447
0.00490235
0.00420108
0.00356064
0.00298064
0.00246027
0.00199835
0.00159334
0.00124337
0.000946114
0.000698604
0.0004969
0.000335507
0.000209394
0.000113725
4.50801e-05
8.20706e-06
4.20701e-07
5.03347e-08
1.57114e-07
1.76714e-06
2.84793e-05
0.000106559
0.000216738
0.000364773
0.000554803
0.000772535
0.00101736
0.00129672
0.00161167
0.00196285
0.00235065
0.00278603
0.00326645
0.00380534
0.00441862
0.00512867
0.00592448
0.00681398
0.00779101
0.0088284
0.0100363
0.0113958
0.0128939
0.0144982
0.0161625
0.017805
0.0192567
0.0206423
0.0218332
0.0226305
0.0228176
0.0222487
0.0212889
0.020323
0.0186213
0.0165916
0.0146447
0.0131414
0.0118225
0.0106295
0.00952862
0.00850248
0.00754195
0.00664285
0.00580395
0.00502535
0.00430756
0.00365093
0.00305542
0.00252055
0.00204538
0.0016286
0.00126846
0.000962738
0.00070862
0.000502879
0.000339045
0.000211478
0.000114709
4.53692e-05
8.26558e-06
4.23422e-07
5.04537e-08
1.61738e-07
1.83453e-06
2.93611e-05
0.000108659
0.000220939
0.000372676
0.000568283
0.000789287
0.00104109
0.00132891
0.00165382
0.00201651
0.00241752
0.00286862
0.00336764
0.00392797
0.00456619
0.00530852
0.0061404
0.00706892
0.00808346
0.00913815
0.0103714
0.0117439
0.0132555
0.0148826
0.0165661
0.0182079
0.0197685
0.0212273
0.0224662
0.0232959
0.023504
0.0229398
0.0219511
0.020856
0.0193484
0.0173225
0.0151583
0.0135089
0.0121064
0.0108698
0.00974119
0.00869495
0.00771787
0.00680337
0.00594895
0.0051543
0.00442004
0.00374689
0.00313527
0.00258512
0.0020959
0.00166665
0.00129589
0.000981478
0.000720328
0.000509064
0.000342008
0.000212672
0.00011514
4.55034e-05
8.28732e-06
4.24496e-07
5.0531e-08
1.66615e-07
1.90573e-06
3.02744e-05
0.000110886
0.000225472
0.000381298
0.000583136
0.000807873
0.00106771
0.00136495
0.00170067
0.00207552
0.00248978
0.0029551
0.00347114
0.00404962
0.00470407
0.00544752
0.00628774
0.00723188
0.0082814
0.00944508
0.0107148
0.0121179
0.0136444
0.0152697
0.0169576
0.0186726
0.0202994
0.0218196
0.0231037
0.0239664
0.024197
0.0236416
0.0226539
0.0215572
0.0200499
0.0180833
0.015815
0.0139658
0.0124227
0.0111281
0.00996457
0.00889377
0.00789783
0.00696723
0.00609755
0.00528743
0.00453717
0.00384765
0.00321967
0.00265367
0.00214964
0.00170706
0.0013249
0.00100138
0.000733604
0.000517192
0.000346574
0.000215104
0.000116172
4.58512e-05
8.35118e-06
4.27623e-07
5.06617e-08
1.7178e-07
1.98196e-06
3.12446e-05
0.000113292
0.00023043
0.000390636
0.000597164
0.000828226
0.0010961
0.00140276
0.00174942
0.00213731
0.00256847
0.00304738
0.0035803
0.00418187
0.00487206
0.00564699
0.0065239
0.00750515
0.00858561
0.00978486
0.0110905
0.0125158
0.0140633
0.0157089
0.0174155
0.0191474
0.0208391
0.0224226
0.0237552
0.024657
0.0249171
0.0243697
0.0233507
0.0221953
0.0208157
0.0188521
0.0167714
0.014722
0.0128601
0.0114254
0.010207
0.00910339
0.00808489
0.00713662
0.00625137
0.00542615
0.00466043
0.00395484
0.00331041
0.00272804
0.00220825
0.00175114
0.0013562
0.0010221
0.000746197
0.000524176
0.000350082
0.000216683
0.000116768
4.60235e-05
8.37699e-06
4.28903e-07
5.07408e-08
1.77279e-07
2.06592e-06
3.23092e-05
0.000115978
0.000235996
0.000400868
0.000612267
0.000850437
0.00112701
0.0014436
0.00180101
0.00220006
0.00264246
0.0031397
0.0036925
0.00431518
0.00502205
0.00582896
0.00670657
0.00770541
0.0088276
0.0100888
0.0114429
0.0129184
0.0145012
0.0161779
0.0179216
0.0196884
0.0214277
0.0230465
0.0244138
0.02535
0.0256381
0.0251034
0.0240806
0.0228665
0.0213562
0.0195873
0.0174477
0.0154246
0.013461
0.0117888
0.0104772
0.00932819
0.00828195
0.00731335
0.00641107
0.00557017
0.00478903
0.00406772
0.00340715
0.00280844
0.0022726
0.00180032
0.00139174
0.00104611
0.000761207
0.000532796
0.000354588
0.000218862
0.000117713
4.63425e-05
8.43323e-06
4.31838e-07
5.09026e-08
1.82957e-07
2.15258e-06
3.33929e-05
0.000118706
0.000241703
0.000411489
0.000628046
0.000873769
0.00115957
0.00148679
0.00185631
0.00226918
0.00272671
0.00324126
0.00381467
0.00445824
0.0051849
0.00599874
0.00691039
0.0079253
0.0090738
0.0103574
0.0117673
0.0132882
0.0148994
0.016601
0.0183779
0.0201945
0.0219861
0.0236587
0.0250777
0.0260605
0.0263826
0.0258513
0.0247862
0.0235048
0.0219379
0.0200774
0.0181964
0.0161178
0.0141005
0.0122448
0.0107857
0.00957465
0.00849381
0.00750129
0.00657972
0.00572158
0.00492399
0.00418639
0.00350943
0.00289425
0.00234216
0.00185432
0.00143148
0.00107349
0.000778613
0.000542885
0.000359722
0.000221288
0.000118877
4.67593e-05
8.51536e-06
4.36008e-07
5.11259e-08
1.88866e-07
2.24425e-06
3.45277e-05
0.000121568
0.000247706
0.00042268
0.000644675
0.000898402
0.00119396
0.00153233
0.00191439
0.0023418
0.00281794
0.00334789
0.00394434
0.00461518
0.0053692
0.00621385
0.00715726
0.00818558
0.00935113
0.0106511
0.0120868
0.0136494
0.0153199
0.0170799
0.0189053
0.0207574
0.0225821
0.0242923
0.0257536
0.0267781
0.0271321
0.0266058
0.0255006
0.0241117
0.0224605
0.0206761
0.0186627
0.0167162
0.014745
0.0128878
0.0112111
0.00986069
0.0087256
0.00770249
0.00675881
0.00588193
0.00506689
0.00431224
0.00361825
0.00298607
0.00241725
0.00191338
0.00147577
0.00110484
0.000799352
0.000555585
0.000366977
0.000225166
0.0001205
4.73809e-05
8.64404e-06
4.42354e-07
5.14141e-08
1.94978e-07
2.33926e-06
3.5689e-05
0.000124492
0.000253893
0.000434305
0.000661895
0.000923985
0.00122969
0.00157969
0.00197486
0.00241727
0.00291085
0.00346175
0.00407874
0.0047753
0.00555572
0.00642464
0.0073713
0.00844356
0.00964527
0.0109735
0.0124297
0.0140101
0.0156975
0.0174825
0.0193445
0.0212488
0.0231354
0.0249099
0.026433
0.0275133
0.0279108
0.0273979
0.0262622
0.0248255
0.0231529
0.0213885
0.0194039
0.0174258
0.0153418
0.0133495
0.0117651
0.0102361
0.00898648
0.00791926
0.00694905
0.00605168
0.00521824
0.00444572
0.00373388
0.00308378
0.00249717
0.0019761
0.00152249
0.00113749
0.000820478
0.000568129
0.000373835
0.000228382
0.000121875
4.78963e-05
8.74986e-06
4.47755e-07
5.16839e-08
2.01323e-07
2.4385e-06
3.68872e-05
0.000127516
0.000260341
0.000446471
0.000679764
0.000950645
0.00126698
0.00162903
0.00203744
0.00249418
0.00300272
0.00357057
0.0042072
0.00491715
0.00571168
0.00659881
0.00758788
0.00869422
0.00992369
0.0112774
0.0127556
0.0143599
0.0160853
0.0179153
0.0198262
0.0217813
0.0237207
0.02555
0.0271283
0.0282606
0.0287049
0.0282284
0.0271073
0.0256116
0.0239161
0.0220315
0.020066
0.0180755
0.0160607
0.0140508
0.0122196
0.0107442
0.00932197
0.00816241
0.00715426
0.00623239
0.00537913
0.00458816
0.00385807
0.00318966
0.00258482
0.002046
0.00157568
0.00117564
0.00084595
0.000583735
0.000382511
0.000232708
0.000123779
4.86342e-05
8.90383e-06
4.55625e-07
5.20484e-08
2.07926e-07
2.54204e-06
3.81203e-05
0.000130651
0.000267091
0.000459227
0.000698255
0.000978397
0.00130578
0.00168031
0.00210239
0.00257399
0.00309934
0.00368423
0.00433412
0.00506067
0.00587425
0.00678454
0.00780282
0.00893776
0.0101931
0.0115719
0.0130791
0.0147128
0.0164665
0.0183315
0.0202884
0.0222991
0.0242999
0.0261926
0.027833
0.029021
0.0295061
0.029043
0.0279258
0.0264262
0.0246716
0.0226937
0.0206938
0.0187363
0.016607
0.0147483
0.0129032
0.0112741
0.00981048
0.00848972
0.00738885
0.00642796
0.0055505
0.00473978
0.00399111
0.00330406
0.00268038
0.00212289
0.0016347
0.00121833
0.000874605
0.000601264
0.000392085
0.000237236
0.000125623
4.93885e-05
9.06359e-06
4.63927e-07
5.24867e-08
2.14858e-07
2.65279e-06
3.94262e-05
0.000134023
0.000274338
0.000472745
0.000717363
0.00100672
0.00134492
0.00173155
0.00216654
0.00265085
0.00319088
0.00379486
0.00446592
0.00521412
0.00604965
0.0069814
0.00801914
0.00917121
0.0104441
0.0118446
0.0133767
0.0150427
0.0168404
0.0187577
0.0207698
0.0228362
0.0248938
0.0268459
0.0285477
0.0297938
0.0303248
0.0298816
0.0287591
0.0272403
0.0254693
0.0234648
0.0213598
0.0192318
0.0171477
0.0151874
0.0134513
0.0117408
0.0101837
0.00889539
0.00768407
0.00664964
0.00573702
0.00490267
0.00413438
0.00342842
0.00278568
0.00220904
0.00170214
0.00126829
0.000909141
0.000623165
0.000404548
0.000243222
0.000128476
5.05322e-05
9.30493e-06
4.76433e-07
5.31221e-08
2.2209e-07
2.77346e-06
4.08543e-05
0.00013777
0.000282237
0.000487121
0.00073792
0.00103643
0.0013853
0.00178354
0.00223046
0.0027266
0.00328614
0.00390306
0.00458682
0.00534732
0.00619566
0.00714437
0.00820359
0.00938121
0.0106838
0.0121182
0.0136891
0.0153967
0.0172359
0.0191942
0.0212499
0.0233659
0.0254811
0.0274981
0.0292686
0.0305801
0.0311608
0.0307322
0.0295914
0.0280393
0.0262306
0.0241875
0.0220462
0.0198478
0.0176935
0.015728
0.0138976
0.0122842
0.0107442
0.0093443
0.00808348
0.00694685
0.0059587
0.00508212
0.00428941
0.00356241
0.00289967
0.00230321
0.0017769
0.00132471
0.000949143
0.000649512
0.000420211
0.000252179
0.000132634
5.20378e-05
9.62018e-06
4.92636e-07
5.38804e-08
2.29203e-07
2.89126e-06
4.22299e-05
0.000141269
0.00028951
0.000500754
0.000757958
0.00106562
0.00142522
0.00183534
0.00229505
0.00280442
0.00337397
0.00400239
0.004699
0.00547381
0.00633771
0.00730241
0.00837831
0.00957489
0.0109007
0.0123637
0.0139678
0.0157125
0.0175928
0.0195975
0.021706
0.0238815
0.0260625
0.0281501
0.0299935
0.0313753
0.0320139
0.0316117
0.0304624
0.0288804
0.0270318
0.0249244
0.0226912
0.0204981
0.0182819
0.016271
0.0144911
0.0127961
0.0112018
0.00974567
0.00842616
0.00730122
0.00626095
0.00530594
0.00446382
0.0037063
0.00302177
0.0024048
0.00185837
0.00138697
0.00099383
0.000679027
0.000437672