/*--------------------------------*- C++ -*----------------------------------*\
| =========                 |                                                 |
| \\      /  F ield         | OpenFOAM: The Open Source CFD Toolbox           |
|  \\    /   O peration     | Version:  2412                                  |
|   \\  /    A nd           | Website:  www.openfoam.com                      |
|    \\/     M anipulation  |                                                 |
\*---------------------------------------------------------------------------*/
FoamFile
{
    version     2.0;
    format      ascii;
    arch        "LSB;label=32;scalar=64";
    class       volScalarField;
    location    "1714";
    object      omega;
}
// * * * * * * * * * * * * * * * * * * * * * * * * * * * * * * * * * * * * * //

dimensions      [0 0 -1 0 0 0 0];

internalField   nonuniform List<scalar> 
32240
(
320.082
53.6959
19.5225
10.6685
6.82126
4.71104
3.42324
2.58325
2.00581
1.59213
1.28631
1.05473
0.876095
0.7364
0.626118
0.538448
0.467934
0.41072
0.363919
0.325349
0.29334
0.266652
0.244348
0.225684
0.210124
0.197246
0.18664
0.177902
0.170636
0.164461
0.159496
0.156332
0.15514
0.156468
0.159753
0.164629
0.170867
0.17842
0.187553
0.198121
0.210383
0.224805
0.241964
0.262546
0.287399
0.317636
0.354478
0.399536
0.454901
0.523322
0.608523
0.71548
0.85109
1.02494
1.25085
1.54959
1.95434
2.51857
3.33011
4.54412
6.47058
9.91597
18.3207
52.8202
320.066
320.183
53.7438
19.573
10.701
6.83761
4.71685
3.42576
2.58267
2.00153
1.58557
1.2788
1.0472
0.869455
0.731278
0.622402
0.536062
0.466404
0.410513
0.365035
0.327739
0.29692
0.271249
0.249688
0.231542
0.216272
0.203456
0.192779
0.183978
0.176834
0.171248
0.166702
0.163404
0.162031
0.16335
0.166737
0.171778
0.178172
0.185731
0.1941
0.203882
0.215701
0.229914
0.246892
0.267191
0.291545
0.320879
0.356622
0.400521
0.454866
0.521998
0.605673
0.711103
0.845372
1.0181
1.24327
1.54182
1.94697
2.51184
3.32374
4.53883
6.46823
9.91268
18.3206
52.8317
320.165
320.289
53.7734
19.5993
10.7203
6.84995
4.72538
3.42822
2.58172
1.99934
1.58312
1.27655
1.04557
0.868697
0.732072
0.62309
0.537655
0.468174
0.412433
0.367062
0.329802
0.298975
0.27333
0.25193
0.234058
0.219138
0.206678
0.196221
0.187363
0.179816
0.173464
0.168532
0.165258
0.164038
0.16554
0.169043
0.174072
0.180339
0.187748
0.196465
0.206641
0.218541
0.232576
0.249275
0.269279
0.293386
0.322602
0.35819
0.401787
0.455553
0.522517
0.605788
0.710213
0.843667
1.01577
1.24042
1.53854
1.94341
2.50837
3.32103
4.538
6.4719
9.91394
18.3261
52.8466
320.27
320.401
53.8152
19.6358
10.7419
6.86062
4.73035
3.43047
2.5809
1.9976
1.58105
1.27462
1.04412
0.86792
0.731942
0.624266
0.538226
0.46997
0.414942
0.370139
0.333357
0.302943
0.277648
0.256525
0.238845
0.224019
0.21154
0.200952
0.191883
0.184092
0.17755
0.172391
0.168847
0.167407
0.168872
0.172499
0.177806
0.184444
0.192228
0.201137
0.211354
0.22321
0.237138
0.253663
0.273419
0.297185
0.325948
0.360985
0.403956
0.457017
0.522986
0.605671
0.709192
0.841697
1.01283
1.23665
1.53421
1.93897
2.50439
3.318
4.53625
6.47146
9.91624
18.3307
52.861
320.381
320.519
53.8545
19.6697
10.7632
6.87203
4.73583
3.43218
2.58042
1.99606
1.57917
1.27298
1.04332
0.868852
0.732067
0.623673
0.539023
0.471349
0.4167
0.372174
0.335605
0.305357
0.280199
0.259189
0.241595
0.226815
0.214317
0.20363
0.194371
0.186321
0.179545
0.17441
0.170969
0.16959
0.171126
0.174831
0.180181
0.186834
0.194635
0.203588
0.213861
0.225759
0.239697
0.256192
0.275869
0.299506
0.328079
0.362849
0.405456
0.458055
0.5235
0.605601
0.70834
0.839962
1.01022
1.23325
1.53019
1.93464
2.50029
3.31446
4.53291
6.46543
9.92021
18.3367
52.8771
320.498
320.643
53.8985
19.7071
10.7855
6.88334
4.74113
3.43413
2.57996
1.99457
1.57735
1.27134
1.04223
0.868654
0.732755
0.625055
0.540897
0.473739
0.419587
0.375511
0.339341
0.309446
0.284593
0.263831
0.246412
0.23171
0.219172
0.208303
0.198694
0.190125
0.182754
0.177746
0.174417
0.172975
0.17458
0.178443
0.184007
0.190894
0.198906
0.208015
0.218371
0.230273
0.244141
0.260494
0.279962
0.303318
0.331527
0.36583
0.407842
0.459697
0.524228
0.605229
0.707296
0.838054
1.0075
1.22974
1.52604
1.93019
2.49617
3.31139
4.53161
6.46658
9.92411
18.3428
52.8937
320.621
320.773
53.9427
19.7445
10.8084
6.89526
4.74682
3.43644
2.57999
1.99325
1.57548
1.26935
1.04012
0.865531
0.731927
0.625649
0.54215
0.47552
0.421781
0.378024
0.342096
0.312382
0.287657
0.266976
0.24958
0.234826
0.222131
0.210959
0.200828
0.191416
0.183073
0.17875
0.176246
0.174917
0.176614
0.180578
0.186243
0.193234
0.201362
0.210594
0.221062
0.233051
0.246967
0.263322
0.282739
0.305984
0.33402
0.368077
0.409762
0.461195
0.525227
0.60581
0.707387
0.836775
1.0051
1.22638
1.52194
1.92572
2.49196
3.30834
4.53069
6.4687
9.92891
18.3495
52.9109
320.749
320.907
53.9895
19.7834
10.831
6.90581
4.75055
3.43661
2.57932
1.99196
1.57423
1.26899
1.04201
0.867587
0.732033
0.626781
0.544155
0.478164
0.424934
0.381599
0.346028
0.316617
0.292141
0.271648
0.254365
0.239612
0.226763
0.215211
0.20428
0.192619
0.181933
0.17885
0.17906
0.178127
0.180012
0.184167
0.190019
0.19718
0.205456
0.214803
0.225343
0.237351
0.251232
0.267495
0.286763
0.309798
0.337551
0.371244
0.412468
0.463331
0.526657
0.606252
0.70735
0.835759
1.0029
1.22309
1.51779
1.92105
2.4874
3.30503
4.53011
6.4731
9.93426
18.3572
52.9294
320.883
321.047
54.0365
19.8228
10.8541
6.91637
4.75464
3.43586
2.57791
1.99014
1.57247
1.26772
1.04162
0.868309
0.7342
0.628365
0.545974
0.480349
0.42749
0.384484
0.349184
0.319983
0.295652
0.275229
0.257918
0.24301
0.229845
0.217774
0.206098
0.194054
0.183028
0.178617
0.180284
0.179871
0.181989
0.186349
0.19237
0.199669
0.208076
0.217554
0.228215
0.24032
0.254258
0.270533
0.28976
0.312693
0.340277
0.373719
0.414599
0.465005
0.52773
0.606534
0.70648
0.834196
1.00035
1.21952
1.51339
1.91619
2.48281
3.30198
4.53039
6.4807
9.93923
18.3654
52.9489
321.021
321.192
54.0847
19.8627
10.8776
6.92804
4.75655
3.43638
2.5757
1.98736
1.57007
1.26555
1.03989
0.867983
0.734924
0.630073
0.548276
0.483233
0.430868
0.388271
0.353306
0.32437
0.300238
0.279934
0.262637
0.247602
0.234124
0.22149
0.208746
0.193801
0.184241
0.180138
0.182522
0.182658
0.185087
0.189772
0.196045
0.203505
0.212033
0.221602
0.232323
0.244451
0.258372
0.274586
0.293704
0.316475
0.34383
0.376962
0.417426
0.46729
0.52933
0.60733
0.70652
0.833002
0.998063
1.21616
1.50907
1.91116
2.47765
3.29774
4.52807
6.48136
9.94429
18.3739
52.9692
321.165
321.341
54.1327
19.9027
10.9029
6.94172
4.76355
3.4402
2.5799
1.9906
1.57219
1.2674
1.03801
0.865876
0.733531
0.631092
0.550279
0.485826
0.433887
0.391623
0.356915
0.328167
0.304143
0.283848
0.266429
0.251108
0.237163
0.223956
0.210877
0.196226
0.188903
0.182348
0.183904
0.184064
0.18674
0.191888
0.198547
0.206213
0.21489
0.224583
0.235412
0.247624
0.261595
0.277818
0.296898
0.319576
0.346776
0.379675
0.419818
0.46926
0.530778
0.608158
0.706554
0.831988
0.995848
1.21276
1.50464
1.90594
2.47219
3.29299
4.52468
6.47873
9.94981
18.3828
52.9898
321.313
321.495
54.1831
19.9452
10.9293
6.95665
4.7725
3.44489
2.57907
1.98668
1.56866
1.26703
1.04148
0.869356
0.735998
0.633591
0.553122
0.4891
0.437575
0.395672
0.361262
0.332737
0.308846
0.288563
0.270996
0.255323
0.240783
0.226843
0.213912
0.20153
0.192276
0.187498
0.186613
0.186004
0.188759
0.194651
0.202008
0.209934
0.218758
0.22854
0.23942
0.251652
0.265612
0.281787
0.300779
0.323323
0.350329
0.382961
0.422731
0.471654
0.532453
0.608867
0.706053
0.830689
0.99354
1.20936
1.50016
1.90054
2.4664
3.28788
4.52112
6.47688
9.9562
18.3929
53.012
321.465
321.653
54.2349
19.9888
10.9556
6.97169
4.78301
3.44831
2.5814
1.99028
1.57096
1.26486
1.04085
0.869777
0.737508
0.635667
0.555767
0.492231
0.441102
0.399509
0.365323
0.336926
0.313046
0.292622
0.274721
0.258461
0.242917
0.227238
0.214446
0.203411
0.196752
0.191188
0.188367
0.186062
0.188478
0.195615
0.204461
0.212778
0.22183
0.231757
0.242738
0.25504
0.269038
0.285213
0.304159
0.326604
0.353455
0.385862
0.425326
0.473841
0.534102
0.609827
0.706271
0.829922
0.991347
1.20589
1.49552
1.89502
2.46076
3.2838
4.52116
6.48636
9.96225
18.4031
53.0347
321.622
321.815
54.2885
20.0339
10.9838
6.98694
4.79077
3.4519
2.58336
1.99067
1.57064
1.26389
1.03965
0.868546
0.738533
0.637802
0.558662
0.495697
0.44501
0.403753
0.369802
0.341526
0.31762
0.296976
0.278616
0.261648
0.244815
0.225235
0.212043
0.202994
0.197676
0.193685
0.190465
0.185192
0.186751
0.194925
0.20698
0.216197
0.225586
0.235661
0.246712
0.259043
0.273039
0.28918
0.308055
0.330383
0.357063
0.389236
0.428386
0.476487
0.536214
0.611237
0.706663
0.829795
0.989728
1.2028
1.49106
1.88937
2.45446
3.2782
4.51781
6.48712
9.96843
18.4141
53.0585
321.782
321.982
54.342
20.0796
11.0116
6.99996
4.79493
3.45447
2.58455
1.99043
1.57109
1.26665
1.03964
0.869544
0.740413
0.640316
0.561707
0.499191
0.448872
0.40789
0.374099
0.345828
0.321705
0.300533
0.281292
0.263494
0.246438
0.226931
0.213581
0.203524
0.197246
0.19605
0.192906
0.187664
0.18817
0.196353
0.20904
0.219018
0.228797
0.239089
0.250264
0.262663
0.276686
0.292818
0.311645
0.333883
0.36042
0.392386
0.431251
0.478977
0.538225
0.612662
0.707391
0.829542
0.988217
1.19979
1.48662
1.88363
2.44795
3.27223
4.51381
6.4866
9.97431
18.425
53.0822
321.947
322.152
54.3975
20.1266
11.0398
7.01176
4.80502
3.45644
2.58343
1.99037
1.57243
1.26935
1.04385
0.872364
0.743162
0.643359
0.565148
0.503026
0.453044
0.412307
0.378624
0.350252
0.325696
0.303519
0.282226
0.262786
0.246926
0.232285
0.216779
0.20555
0.199227
0.198918
0.19561
0.19
0.192734
0.199118
0.212023
0.222434
0.232539
0.243025
0.254302
0.266737
0.280749
0.296835
0.315587
0.337717
0.364101
0.395852
0.434421
0.481746
0.540459
0.614203
0.708069
0.829251
0.986684
1.19684
1.48223
1.87783
2.44112
3.26535
4.50746
6.47963
9.98038
18.4366
53.1073
322.115
322.326
54.454
20.1752
11.07
7.03236
4.81189
3.45895
2.58398
1.98883
1.56753
1.26489
1.04282
0.873325
0.745099
0.646046
0.568427
0.506771
0.457134
0.416597
0.382919
0.354274
0.329008
0.305289
0.280038
0.260697
0.244654
0.232878
0.21982
0.211623
0.205342
0.202547
0.199267
0.195861
0.196985
0.202533
0.214901
0.225633
0.236024
0.246716
0.258123
0.270624
0.28465
0.300711
0.319402
0.341434
0.367672
0.399214
0.437491
0.484408
0.542555
0.615519
0.708338
0.828144
0.984658
1.19358
1.47764
1.87208
2.43467
3.25918
4.50287
6.47754
9.98655
18.4481
53.1325
322.287
322.503
54.513
20.2258
11.1013
7.04738
4.81604
3.4596
2.5847
1.98998
1.57171
1.26892
1.04395
0.875432
0.747702
0.649178
0.572052
0.510804
0.461441
0.420995
0.387166
0.358076
0.332062
0.307574
0.282086
0.262382
0.246045
0.235393
0.225158
0.214973
0.20817
0.205601
0.203081
0.20148
0.203368
0.208728
0.219001
0.229543
0.240038
0.250858
0.262354
0.27489
0.288904
0.304914
0.323524
0.34544
0.371524
0.402862
0.440866
0.487416
0.545069
0.617365
0.709303
0.828115
0.983235
1.19074
1.47342
1.86659
2.4284
3.25331
4.49942
6.47942
9.99313
18.4601
53.1587
322.463
322.684
54.5739
20.2785
11.1319
7.0604
4.81908
3.46248
2.58475
1.98932
1.57193
1.2694
1.04433
0.877131
0.750246
0.652375
0.575732
0.514796
0.465547
0.424965
0.390692
0.360795
0.333563
0.308611
0.285014
0.268375
0.251646
0.235981
0.227571
0.218458
0.211856
0.208584
0.206395
0.205844
0.208575
0.215202
0.224221
0.233959
0.244219
0.255037
0.266584
0.279157
0.293168
0.309129
0.327648
0.349437
0.375362
0.406503
0.444259
0.490485
0.54771
0.619446
0.710645
0.828405
0.983146
1.18865
1.4696
1.86133
2.42224
3.24764
4.49729
6.4869
10.0014
18.4728
53.1843
322.641
322.868
54.6406
20.3345
11.1641
7.07671
4.8234
3.46004
2.58158
1.9832
1.56544
1.26469
1.0442
0.878802
0.752895
0.655655
0.57942
0.51867
0.46932
0.428245
0.392988
0.361456
0.33131
0.307123
0.285902
0.269337
0.252815
0.23793
0.230313
0.222046
0.21554
0.211789
0.209924
0.210211
0.214522
0.220871
0.22906
0.23852
0.248753
0.259609
0.271195
0.283778
0.297755
0.31364
0.332045
0.353685
0.379427
0.410351
0.447843
0.49374
0.550551
0.621767
0.712328
0.829319
0.982985
1.18683
1.46591
1.85606
2.41558
3.24024
4.49014
6.47935
10.0132
18.4835
53.2109
322.823
323.055
54.7125
20.3938
11.1958
7.08815
4.82524
3.46466
2.58565
1.98983
1.57219
1.26884
1.04712
0.881602
0.755952
0.659012
0.582939
0.522073
0.47218
0.429854
0.39242
0.359603
0.332003
0.309478
0.29263
0.273678
0.257379
0.244019
0.233697
0.224874
0.218259
0.214631
0.21319
0.214102
0.218065
0.224836
0.233426
0.243075
0.253405
0.264327
0.275954
0.288548
0.302498
0.318311
0.336595
0.35807
0.383607
0.414288
0.451495
0.497049
0.553433
0.624102
0.713958
0.830072
0.982856
1.18621
1.463
1.85138
2.40962
3.23409
4.48596
6.47997
10.0108
18.4957
53.238
323.008
323.244
54.7872
20.455
11.2269
7.09456
4.8269
3.45644
2.57516
1.98133
1.56548
1.26652
1.04741
0.883296
0.75843
0.661868
0.585776
0.524441
0.47354
0.428744
0.39172
0.36115
0.334041
0.314069
0.29517
0.277763
0.262118
0.24829
0.23681
0.227715
0.221236
0.217584
0.215902
0.216811
0.221642
0.229006
0.237936
0.247836
0.258344
0.26937
0.281047
0.293651
0.30757
0.323301
0.341453
0.362753
0.388073
0.418493
0.45539
0.500576
0.55651
0.626617
0.715758
0.83094
0.982392
1.18516
1.46046
1.84724
2.40421
3.22876
4.48415
6.48799
10.0195
18.5092
53.266
323.196
323.437
54.8624
20.5176
11.2619
7.11242
4.83671
3.4595
2.57764
1.98687
1.57095
1.26939
1.04926
0.8854
0.760764
0.664196
0.5875
0.524413
0.472663
0.428862
0.391867
0.36056
0.334249
0.312901
0.295823
0.279833
0.264329
0.25101
0.239957
0.231244
0.224947
0.220828
0.219058
0.220211
0.225154
0.232837
0.242205
0.252526
0.263349
0.274571
0.286344
0.298974
0.312872
0.328537
0.346573
0.367704
0.392801
0.422947
0.459513
0.504303
0.559762
0.629298
0.717751
0.832108
0.98254
1.18373
1.45763
1.84297
2.39858
3.22244
4.47919
6.48778
10.0334
18.5226
53.2947
323.386
323.632
54.937
20.5827
11.3022
7.13703
4.84287
3.45934
2.5766
1.98728
1.57298
1.27356
1.05194
0.887347
0.76244
0.665515
0.588274
0.526142
0.474218
0.43339
0.398238
0.367796
0.341747
0.319628
0.300192
0.282375
0.266672
0.253795
0.243124
0.234446
0.228002
0.223895
0.222008
0.223128
0.228401
0.236535
0.246406
0.257281
0.268547
0.280045
0.291954
0.304617
0.318482
0.334072
0.351997
0.372969
0.39785
0.427715
0.463936
0.508314
0.563283
0.632216
0.71991
0.833332
0.982734
1.18206
1.45541
1.83903
2.39275
3.21525
4.47126
6.47766
10.0435
18.5355
53.3261
323.579
323.83
55.0119
20.6497
11.3415
7.15533
4.8478
3.4588
2.57334
1.98316
1.57055
1.2698
1.0507
0.887086
0.762388
0.665283
0.588298
0.526566
0.474852
0.432969
0.399403
0.370172
0.344151
0.322122
0.30226
0.284136
0.26693
0.254859
0.246022
0.238155
0.231883
0.227333
0.225088
0.226183
0.231592
0.239978
0.250264
0.26187
0.273779
0.285679
0.297798
0.310534
0.324381
0.339901
0.357721
0.378551
0.403244
0.432858
0.468753
0.512722
0.567186
0.6355
0.722428
0.834883
0.983115
1.18245
1.45615
1.8391
2.39107
3.21162
4.46839
6.4796
10.0465
18.5475
53.3591
323.774
324.031
55.0896
20.7198
11.3814
7.16985
4.85078
3.45767
2.5707
1.9798
1.57083
1.27412
1.0548
0.889843
0.763862
0.666187
0.589058
0.527278
0.476016
0.435644
0.400974
0.370905
0.346072
0.324923
0.304786
0.286035
0.271045
0.258733
0.249231
0.241531
0.235021
0.230203
0.227884
0.229009
0.234515
0.242945
0.253323
0.265993
0.278967
0.291474
0.303907
0.316769
0.330618
0.346068
0.363772
0.384454
0.408963
0.43835
0.473957
0.517556
0.571551
0.639289
0.725541
0.837269
0.984814
1.1838
1.45634
1.83818
2.38745
3.20708
4.46547
6.48317
10.0398
18.564
53.3954
323.972
324.233
55.1668
20.7899
11.4192
7.18047
4.85747
3.45463
2.56598
1.97355
1.56097
1.2654
1.04932
0.8875
0.762969
0.666263
0.589976
0.529537
0.480287
0.438562
0.40376
0.374771
0.350196
0.327662
0.307166
0.288793
0.274457
0.262114
0.252043
0.244314
0.23798
0.233188
0.230789
0.231853
0.237221
0.245127
0.254104
0.268484
0.283706
0.297277
0.310218
0.323317
0.337209
0.352582
0.370148
0.390665
0.414991
0.444165
0.479515
0.522792
0.576372
0.643564
0.729088
0.83982
0.985994
1.18315
1.45538
1.83749
2.38787
3.20751
4.46606
6.48407
10.0503
18.5825
53.4354
324.172
324.438
55.2461
20.8628
11.4583
7.19434
4.84857
3.44644
2.55992
1.96921
1.55791
1.26307
1.04719
0.886629
0.762578
0.66762
0.592819
0.532371
0.482198
0.440471
0.406136
0.377903
0.353527
0.330973
0.310468
0.291731
0.277016
0.264339
0.253903
0.246953
0.240763
0.235936
0.233536
0.234584
0.239734
0.246681
0.252297
0.266744
0.286397
0.302743
0.316609
0.330162
0.344201
0.359534
0.37695
0.397265
0.421368
0.450307
0.485396
0.528366
0.581571
0.648298
0.733238
0.843237
0.98847
1.18431
1.4543
1.83513
2.38514
3.20492
4.46535
6.48179
10.0511
18.6034
53.4764
324.374
324.645
55.327
20.9374
11.4922
7.19446
4.84479
3.43913
2.55288
1.96326
1.55327
1.25993
1.0455
0.886149
0.763297
0.669038
0.594369
0.533522
0.482224
0.440387
0.405792
0.377463
0.355249
0.333853
0.314233
0.296538
0.280997
0.267705
0.256987
0.249961
0.243723
0.238876
0.236442
0.237419
0.242373
0.248746
0.253237
0.266229
0.285498
0.306822
0.322612
0.337095
0.351503
0.366906
0.384215
0.404322
0.428168
0.456833
0.491637
0.5343
0.587151
0.65344
0.737821
0.847095
0.991409
1.18618
1.45524
1.83571
2.38385
3.20027
4.45554
6.47282
10.058
18.617
53.5244
324.578
324.854
55.4113
21.0092
11.5291
7.20372
4.84052
3.4312
2.54486
1.9563
1.54798
1.25642
1.04362
0.885594
0.763651
0.669916
0.595591
0.53493
0.483421
0.441426
0.406757
0.378575
0.357291
0.336387
0.317495
0.300335
0.285017
0.27196
0.261719
0.253647
0.246927
0.241889
0.239358
0.240229
0.24506
0.251554
0.257357
0.267368
0.285582
0.309773
0.328028
0.344012
0.359052
0.374677
0.391961
0.411884
0.435457
0.463807
0.498285
0.540617
0.593122
0.659029
0.742954
0.851648
0.995175
1.18883
1.45636
1.8355
2.38443
3.2013
4.45843
6.47806
10.0682
18.6401
53.5773
324.784
325.065
55.4995
21.0887
11.5697
7.21735
4.84215
3.42419
2.53626
1.94848
1.54201
1.25249
1.04155
0.885149
0.764632
0.671665
0.597987
0.538201
0.488815
0.44776
0.413367
0.384523
0.359897
0.339017
0.320357
0.303764
0.289211
0.276645
0.265793
0.257295
0.250254
0.245065
0.242439
0.243198
0.247876
0.254162
0.259705
0.269235
0.285679
0.310354
0.331869
0.350652
0.366684
0.38273
0.400134
0.419965
0.443298
0.471317
0.505417
0.547352
0.599449
0.664932
0.7484
0.856577
0.999486
1.19233
1.45859
1.83515
2.38177
3.19686
4.4518
6.47655
10.0774
18.6645
53.6324
324.991
325.278
55.5932
21.1699
11.6084
7.23368
4.83287
3.41226
2.52543
1.93976
1.53583
1.24862
1.03934
0.883565
0.765111
0.67327
0.599806
0.539078
0.489756
0.448587
0.414263
0.38588
0.361519
0.3409
0.322866
0.306807
0.292686
0.280479
0.269931
0.261057
0.253694
0.248336
0.245569
0.246157
0.250688
0.257098
0.263032
0.270518
0.286013
0.30582
0.329392
0.354553
0.373721
0.390766
0.408568
0.428461
0.451645
0.479367
0.513072
0.554554
0.60617
0.671153
0.754105
0.861742
1.00408
1.19632
1.46193
1.83786
2.38364
3.19772
4.45204
6.47925
10.0879
18.6916
53.6903
325.201
325.492
55.6874
21.2506
11.6428
7.23646
4.82166
3.39895
2.51343
1.93012
1.5291
1.2448
1.03817
0.884685
0.766361
0.674775
0.601645
0.541902
0.49207
0.452889
0.419101
0.390105
0.364661
0.343751
0.325519
0.309686
0.29585
0.283781
0.27337
0.26443
0.25712
0.251757
0.248905
0.249352
0.25371
0.259969
0.266279
0.275006
0.287214
0.306889
0.328502
0.354311
0.379037
0.398318
0.417012
0.43721
0.460391
0.487917
0.52128
0.562307
0.613383
0.677771
0.76009
0.867075
1.00876
1.20037
1.46539
1.84072
2.38575
3.19912
4.45261
6.4812
10.099
18.7217
53.7463
325.411
325.708
55.7859
21.3338
11.6771
7.23853
4.80967
3.38505
2.5011
1.92042
1.52238
1.24068
1.03602
0.884157
0.766946
0.675897
0.603414
0.544443
0.496366
0.456565
0.423422
0.39449
0.369323
0.34766
0.329199
0.313606
0.300042
0.288068
0.277503
0.268399
0.260909
0.255365
0.252322
0.252583
0.256868
0.263385
0.270193
0.279294
0.292374
0.307253
0.328568
0.353884
0.3821
0.405212
0.425367
0.446126
0.469447
0.496876
0.529981
0.57062
0.621188
0.684957
0.766552
0.872716
1.01349
1.20412
1.46813
1.84251
2.38671
3.20068
4.45444
6.48063
10.1077
18.745
53.7978
325.624
325.925
55.8866
21.4174
11.7098
7.23902
4.79663
3.37031
2.48803
1.91004
1.51504
1.23601
1.03326
0.882112
0.76685
0.676125
0.603698
0.545092
0.497205
0.457652
0.425788
0.397711
0.373262
0.351904
0.333333
0.317331
0.303508
0.291508
0.281104
0.272144
0.264695
0.259086
0.255911
0.256023
0.260237
0.267003
0.274762
0.284624
0.296331
0.312771
0.330939
0.353847
0.380064
0.40846
0.432787
0.454888
0.478635
0.506091
0.539004
0.579302
0.629406
0.692588
0.773466
0.878758
1.01847
1.20781
1.47024
1.84268
2.38462
3.19543
4.44522
6.47941
10.1142
18.7614
53.8463
325.838
326.144
55.9913
21.5023
11.7418
7.23886
4.78317
3.35531
2.47488
1.89971
1.50775
1.23131
1.03044
0.880525
0.765864
0.676113
0.604018
0.54587
0.498689
0.461131
0.428628
0.400553
0.376465
0.355662
0.337613
0.322059
0.308462
0.296473
0.285873
0.276628
0.26889
0.263016
0.259587
0.259454
0.263524
0.270432
0.278441
0.288185
0.299103
0.314279
0.331887
0.355761
0.384007
0.407704
0.437032
0.463011
0.487846
0.51557
0.54839
0.588396
0.638076
0.700722
0.780954
0.885492
1.02434
1.2127
1.47402
1.84518
2.38546
3.19364
4.44408
6.48075
10.1223
18.7807
53.8891
326.053
326.364
56.0992
21.5879
11.7729
7.23799
4.76962
3.34033
2.46167
1.88927
1.50032
1.22659
1.02792
0.879858
0.7664
0.677354
0.606815
0.549809
0.503226
0.464665
0.43203
0.404241
0.380526
0.360165
0.342457
0.3269
0.313201
0.301084
0.290358
0.280979
0.273086
0.267029
0.263395
0.263001
0.26672
0.273298
0.281607
0.291172
0.303105
0.317309
0.334203
0.35525
0.381852
0.411172
0.436507
0.468243
0.496507
0.525123
0.558088
0.59788
0.647152
0.709256
0.788821
0.892543
1.03039
1.21751
1.47731
1.84665
2.38487
3.19105
4.44083
6.48132
10.1303
18.8003
53.9293
326.269
326.585
56.2108
21.6747
11.8032
7.2366
4.75654
3.32559
2.44854
1.87903
1.49311
1.22206
1.02553
0.878892
0.766785
0.679556
0.609989
0.553567
0.507211
0.468564
0.436024
0.408518
0.385112
0.36493
0.347393
0.332026
0.318385
0.306166
0.295237
0.28562
0.277487
0.271194
0.267336
0.266749
0.270346
0.276735
0.284795
0.294626
0.307243
0.321339
0.33684
0.359018
0.380407
0.407665
0.435971
0.466741
0.501056
0.533647
0.567709
0.607609
0.656556
0.718078
0.796888
0.899695
1.03643
1.2222
1.48035
1.84775
2.38393
3.18861
4.43983
6.48743
10.1384
18.8202
53.9681
326.486
326.808
56.325
21.7617
11.831
7.23283
4.74289
3.3113
2.4363
1.86983
1.48697
1.21866
1.02474
0.879695
0.768119
0.681286
0.612218
0.556326
0.510537
0.47254
0.440677
0.413716
0.390634
0.370656
0.353135
0.337582
0.323678
0.311227
0.300119
0.29034
0.282023
0.275513
0.271422
0.270613
0.27404
0.280333
0.288309
0.297915
0.310296
0.325211
0.342852
0.363363
0.386148
0.409017
0.438241
0.47103
0.501467
0.538583
0.576155
0.617128
0.666171
0.727217
0.805218
0.906945
1.04233
1.22639
1.4824
1.84718
2.38039
3.1827
4.43825
6.48394
10.1428
18.8422
54.0087
326.704
327.031
56.4446
21.8463
11.8455
7.21308
4.72375
3.29547
2.42397
1.86118
1.4818
1.21658
1.02524
0.88015
0.770385
0.684963
0.617029
0.561976
0.516558
0.478645
0.446728
0.419638
0.39639
0.376209
0.358523
0.342894
0.328975
0.316501
0.305305
0.29536
0.286809
0.280023
0.275647
0.274596
0.277915
0.28425
0.292309
0.301972
0.314345
0.329149
0.347187
0.368176
0.390042
0.414292
0.438682
0.468194
0.501195
0.538019
0.57992
0.624838
0.675636
0.736586
0.813893
0.914447
1.04823
1.23017
1.48339
1.84445
2.37267
3.1704
4.41375
6.46334
10.1494
18.8694
54.0572
326.924
327.255
56.5655
21.9291
11.8506
7.20495
4.70623
3.28089
2.41285
1.85371
1.47755
1.21494
1.02571
0.883265
0.775025
0.690527
0.623141
0.568428
0.523282
0.485579
0.453759
0.426628
0.403224
0.382859
0.364997
0.349193
0.335083
0.322385
0.310933
0.300705
0.291853
0.284752
0.280056
0.27871
0.281829
0.288118
0.296219
0.305949
0.318615
0.334108
0.351343
0.372546
0.394317
0.415777
0.440949
0.470436
0.503689
0.541284
0.579164
0.624852
0.680412
0.744298
0.82246
0.922157
1.05434
1.23402
1.48407
1.84084
2.36384
3.15677
4.39691
6.45194
10.1555
18.901
54.1131
327.144
327.48
56.6904
22.0233
11.8839
7.20709
4.7007
3.27055
2.40333
1.84693
1.47423
1.21613
1.02698
0.884857
0.777355
0.69353
0.626684
0.572398
0.527648
0.49028
0.458726
0.431824
0.408689
0.388594
0.370937
0.355227
0.341094
0.328282
0.316656
0.306206
0.297088
0.289671
0.284621
0.282909
0.285733
0.291903
0.300057
0.309675
0.322037
0.337154
0.354937
0.376706
0.398935
0.421462
0.444436
0.471649
0.502972
0.538815
0.578668
0.624264
0.678586
0.743837
0.825509
0.927331
1.05932
1.23715
1.48368
1.83434
2.35692
3.14293
4.38012
6.4388
10.1614
18.9364
54.1763
327.365
327.706
56.8168
22.1227
11.928
7.22093
4.69219
3.25989
2.39428
1.84058
1.46986
1.21099
1.02533
0.887253
0.781769
0.699235
0.633304
0.57967
0.535349
0.498218
0.466735
0.439752
0.416396
0.395991
0.378007
0.362013
0.347653
0.334647
0.322812
0.312106
0.302673
0.294898
0.289463
0.287352
0.289769
0.295523
0.303323
0.312782
0.325376
0.340752
0.359447
0.38048
0.401373
0.426933
0.453806
0.481293
0.511118
0.543954
0.582197
0.625898
0.678659
0.743362
0.823836
0.924898
1.05634
1.23272
1.47715
1.82702
2.3436
3.12428
4.35772
6.42058
10.1641
18.9713
54.239
327.587
327.933
56.9465
22.209
11.9656
7.21359
4.67865
3.24844
2.38658
1.83774
1.47352
1.21465
1.02964
0.892558
0.787884
0.705851
0.640117
0.586459
0.541991
0.504693
0.473102
0.446116
0.422867
0.402643
0.384841
0.368956
0.354582
0.341428
0.329338
0.318306
0.308511
0.300352
0.294521
0.292014
0.294052
0.299403
0.306525
0.31387
0.326502
0.343805
0.363484
0.384593
0.407168
0.43277
0.459336
0.486552
0.516378
0.548713
0.5872
0.632948
0.685017
0.746822
0.825694
0.926109
1.05764
1.23585
1.47885
1.82463
2.33205
3.10516
4.33356
6.40052
10.1683
19.009
54.3032
327.809
328.16
57.0789
22.3002
11.9889
7.20725
4.66638
3.23781
2.37869
1.83228
1.46782
1.21354
1.03151
0.896332
0.792822
0.711595
0.646504
0.593413
0.549459
0.512601
0.481337
0.454529
0.431294
0.410931
0.392879
0.376681
0.361979
0.348507
0.336106
0.324756
0.314619
0.306094
0.299888
0.297032
0.298781
0.303885
0.310893
0.318936
0.331054
0.347489
0.366954
0.388338
0.40977
0.433172
0.459619
0.488583
0.520183
0.555231
0.594243
0.638851
0.689801
0.751025
0.829546
0.929057
1.05866
1.23396
1.47226
1.81504
2.31652
3.08177
4.30401
6.37507
10.1721
19.0371
54.3625
328.032
328.388
57.2149
22.3898
12.0069
7.19558
4.65301
3.228
2.37312
1.83172
1.4737
1.21993
1.0383
0.90377
0.800863
0.720035
0.655122
0.602018
0.557915
0.520831
0.489325
0.462311
0.438937
0.418506
0.400431
0.384213
0.369445
0.355824
0.343184
0.331514
0.321004
0.312078
0.305471
0.302263
0.303815
0.308995
0.316504
0.32525
0.336024
0.351231
0.370396
0.39122
0.411592
0.43423
0.460438
0.488978
0.520477
0.556491
0.598804
0.643625
0.694093
0.754486
0.831598
0.930292
1.05937
1.23266
1.47256
1.80863
2.30175
3.05657
4.26881
6.33741
10.1485
19.0678
54.4238
328.255
328.616
57.3527
22.479
12.0235
7.187
4.64109
3.21839
2.36667
1.8284
1.47256
1.22012
1.04102
0.908085
0.806219
0.726132
0.661797
0.609186
0.565529
0.528854
0.497707
0.470977
0.44778
0.427394
0.409224
0.392782
0.377689
0.363683
0.35063
0.338544
0.327624
0.318299
0.311305
0.307761
0.309124
0.314365
0.322297
0.331922
0.343981
0.358759
0.375815
0.393439
0.416054
0.440179
0.465719
0.49598
0.528142
0.564223
0.605292
0.652
0.705948
0.769709
0.847043
0.943632
1.06823
1.23659
1.47099
1.80037
2.28464
3.0282
4.2291
6.29524
10.1308
19.0961
54.484
328.479
328.845
57.4951
22.5653
12.0278
7.15881
4.62276
3.20678
2.36067
1.82668
1.47364
1.22511
1.04774
0.915949
0.814906
0.735379
0.671395
0.618975
0.575378
0.538658
0.507383
0.480461
0.457026
0.436376
0.417927
0.4012
0.385816
0.371504
0.358126
0.345693
0.334407
0.324703
0.317329
0.313419
0.314495
0.319633
0.327917
0.33815
0.349793
0.363474
0.379739
0.398146
0.419832
0.444951
0.471633
0.500454
0.530987
0.566115
0.606134
0.652388
0.706153
0.769914
0.847647
0.944887
1.07114
1.23651
1.4674
1.79211
2.26809
2.99977
4.18703
6.24668
10.1047
19.1213
54.5451
328.704
329.075
57.6442
22.6512
12.0211
7.15275
4.6125
3.19897
2.35827
1.83204
1.47641
1.22865
1.05233
0.921559
0.821397
0.742584
0.679172
0.627207
0.583974
0.547539
0.516476
0.48969
0.466311
0.445628
0.427052
0.410104
0.394413
0.379732
0.365946
0.353096
0.341402
0.331308
0.323566
0.319311
0.320043
0.32471
0.332366
0.342181
0.353582
0.366615
0.381727
0.400841
0.422823
0.447183
0.47368
0.504406
0.536744
0.572064
0.611443
0.655501
0.708572
0.77212
0.850304
0.949019
1.07383
1.23737
1.4628
1.78378
2.25168
2.97148
4.14479
6.19654
10.0748
19.141
54.6047
328.928
329.305
57.8023
22.748
12.0493
7.15934
4.60584
3.19181
2.3542
1.83103
1.47596
1.23331
1.05956
0.930415
0.83131
0.753176
0.690172
0.638414
0.595231
0.558724
0.527488
0.500445
0.476739
0.455671
0.436667
0.419266
0.403117
0.387989
0.373781
0.360538
0.348476
0.338037
0.329971
0.325436
0.325984
0.330527
0.338063
0.347644
0.358699
0.371146
0.386151
0.405202
0.427149
0.451748
0.478225
0.507018
0.539792
0.575276
0.615204
0.659881
0.712918
0.775783
0.852727
0.949742
1.07388
1.23788
1.4617
1.77792
2.23794
2.94514
4.10192
6.14124
10.0367
19.158
54.6667
329.153
329.535
57.9685
22.8461
12.0773
7.13424
4.5876
3.17946
2.34578
1.8224
1.4763
1.23758
1.06595
0.938076
0.839787
0.7622
0.699573
0.648074
0.605062
0.568651
0.537441
0.510354
0.486531
0.465275
0.446016
0.428302
0.411799
0.396294
0.381707
0.368096
0.355687
0.344922
0.336551
0.331746
0.332102
0.336518
0.344018
0.353617
0.364771
0.377418
0.392141
0.409921
0.431131
0.455154
0.481327
0.511208
0.543933
0.58014
0.619087
0.663079
0.715976
0.779935
0.855775
0.951575
1.07524
1.23932
1.4626
1.7727
2.22416
2.91833
4.05732
6.0809
9.98972
19.166
54.7217
329.378
329.765
58.1389
22.9379
12.0792
7.13124
4.57795
3.17186
2.3422
1.82142
1.47828
1.2431
1.07368
0.947299
0.85006
0.773204
0.711058
0.659836
0.616929
0.580471
0.54908
0.521697
0.497481
0.475757
0.45598
0.437728
0.420698
0.404705
0.389686
0.375705
0.362977
0.351929
0.343302
0.33828
0.3385
0.342846
0.350381
0.360126
0.371414
0.383953
0.398173
0.41532
0.435875
0.459421
0.485909
0.514963
0.547598
0.582527
0.622133
0.667948
0.721141
0.784727
0.862239
0.958397
1.08038
1.24015
1.45878
1.76615
2.21078
2.89277
4.01341
6.01807
9.93538
19.1652
54.7734
329.603
329.996
58.3142
23.0378
12.0858
7.09621
4.5596
3.16627
2.35254
1.83353
1.48673
1.25108
1.08239
0.95687
0.860321
0.783939
0.722074
0.670973
0.628058
0.591487
0.559896
0.532238
0.507684
0.485574
0.46538
0.446705
0.429268
0.412906
0.397565
0.383308
0.370338
0.359066
0.350227
0.345019