/*--------------------------------*- C++ -*----------------------------------*\
| =========                 |                                                 |
| \\      /  F ield         | OpenFOAM: The Open Source CFD Toolbox           |
|  \\    /   O peration     | Version:  2412                                  |
|   \\  /    A nd           | Website:  www.openfoam.com                      |
|    \\/     M anipulation  |                                                 |
\*---------------------------------------------------------------------------*/
FoamFile
{
    version     2.0;
    format      ascii;
    arch        "LSB;label=32;scalar=64";
    class       volScalarField;
    location    "1714";
    object      p;
}
// * * * * * * * * * * * * * * * * * * * * * * * * * * * * * * * * * * * * * //

dimensions      [0 2 -2 0 0 0 0];

internalField   nonuniform List<scalar> 
32240
(
-8.25059e-07
-7.75162e-07
-7.05581e-07
-6.03446e-07
-4.44405e-07
-2.14132e-07
9.51995e-08
4.94039e-07
9.95485e-07
1.61723e-06
2.37244e-06
3.27107e-06
4.34459e-06
5.65358e-06
7.25256e-06
9.19486e-06
1.15335e-05
1.43388e-05
1.76923e-05
2.16726e-05
2.63444e-05
3.17572e-05
3.79246e-05
4.48258e-05
5.2391e-05
6.05077e-05
6.9021e-05
7.77543e-05
8.65051e-05
9.50455e-05
0.000103164
0.000110807
0.000118155
0.000124894
0.000130645
0.000135562
0.000139718
0.000143185
0.000146104
0.000148577
0.000150614
0.000152219
0.000153441
0.000154345
0.000155002
0.000155477
0.000155821
0.000156061
0.000156216
0.000156303
0.000156345
0.000156355
0.000156341
0.000156307
0.000156259
0.000156203
0.000156144
0.000156087
0.000156036
0.000155995
0.000155967
0.00015595
0.000155942
0.000155939
0.000155942
0.000361988
0.00036204
0.000362132
0.000362269
0.000362472
0.000362746
0.000363074
0.000363436
0.000363808
0.000364165
0.000364471
0.000364686
0.000364781
0.000364751
0.000364566
0.00036418
0.000363542
0.000362595
0.000361296
0.000359607
0.000357493
0.000354933
0.000351921
0.000348472
0.000344615
0.000340398
0.000335884
0.000331176
0.000326414
0.000321764
0.000317369
0.000313358
0.000309808
0.000306903
0.00030468
0.000302985
0.000301741
0.000300906
0.000300452
0.00030034
0.000300511
0.000300896
0.000301434
0.000302071
0.000302767
0.000303493
0.000304224
0.000304935
0.0003056
0.000306194
0.00030671
0.000307153
0.000307521
0.00030781
0.000308022
0.000308165
0.000308253
0.000308303
0.000308324
0.000308323
0.00030831
0.000308298
0.000308287
0.000308278
0.000308269
0.000498938
0.000498988
0.000499068
0.00049919
0.000499379
0.000499647
0.000499987
0.000500389
0.00050084
0.00050133
0.00050185
0.000502419
0.000503047
0.000503734
0.00050448
0.000505264
0.000506085
0.000506949
0.000507844
0.000508763
0.000509707
0.000510684
0.000511713
0.000512815
0.000514
0.000515269
0.000516604
0.000517994
0.000519454
0.000521049
0.000522853
0.000524912
0.00052733
0.000530031
0.000532737
0.000535395
0.000537961
0.000540396
0.000542632
0.000544632
0.000546436
0.000548095
0.000549629
0.000551036
0.000552308
0.000553437
0.000554425
0.000555282
0.000556022
0.00055665
0.000557167
0.000557586
0.000557924
0.000558187
0.000558381
0.000558516
0.000558603
0.000558658
0.00055869
0.000558698
0.000558692
0.000558681
0.000558671
0.000558663
0.000558657
0.000722138
0.000722192
0.000722282
0.000722417
0.00072262
0.000722901
0.00072325
0.000723657
0.000724107
0.000724585
0.000725077
0.000725603
0.000726179
0.000726766
0.000727333
0.000727873
0.000728389
0.000728878
0.000729318
0.000729697
0.000730011
0.000730265
0.000730469
0.000730638
0.000730784
0.000730923
0.000731071
0.000731267
0.000731571
0.000732074
0.000732849
0.000733965
0.000735559
0.000737549
0.000739626
0.000741687
0.000743652
0.000745475
0.000747151
0.000748699
0.000750132
0.000751453
0.000752665
0.000753771
0.000754773
0.000755675
0.00075648
0.000757189
0.000757806
0.000758335
0.000758775
0.00075913
0.000759412
0.00075963
0.000759791
0.000759901
0.00075997
0.000760011
0.000760032
0.000760034
0.000760028
0.000760018
0.000760008
0.00076
0.000759994
0.000916399
0.000916454
0.000916544
0.00091668
0.000916887
0.000917175
0.000917537
0.000917961
0.000918436
0.000918951
0.000919497
0.000920084
0.000920727
0.000921412
0.000922103
0.000922799
0.000923507
0.000924219
0.000924925
0.000925624
0.000926322
0.000927036
0.000927785
0.000928594
0.000929481
0.00093046
0.000931547
0.000932771
0.000934205
0.000935982
0.000938142
0.000940624
0.00094356
0.000946818
0.000949992
0.000953016
0.000955853
0.000958478
0.000960877
0.000963052
0.000965015
0.000966784
0.000968374
0.000969797
0.000971064
0.000972182
0.000973162
0.000974015
0.00097475
0.000975376
0.0009759
0.000976325
0.000976658
0.000976912
0.000977096
0.00097722
0.000977296
0.000977342
0.000977363
0.000977362
0.00097735
0.000977336
0.000977324
0.000977315
0.000977309
0.00112078
0.00112084
0.00112094
0.00112108
0.0011213
0.00112161
0.00112198
0.00112243
0.00112292
0.00112347
0.00112405
0.00112466
0.00112527
0.00112591
0.0011266
0.00112732
0.00112804
0.00112874
0.00112943
0.0011301
0.00113076
0.00113144
0.00113215
0.00113291
0.00113375
0.0011347
0.00113576
0.00113699
0.00113851
0.00114058
0.0011432
0.00114604
0.00114922
0.00115276
0.0011562
0.00115947
0.0011625
0.00116528
0.0011678
0.00117006
0.0011721
0.00117393
0.00117557
0.00117704
0.00117834
0.00117949
0.0011805
0.00118138
0.00118213
0.00118277
0.0011833
0.00118372
0.00118405
0.00118431
0.00118449
0.00118462
0.00118469
0.00118474
0.00118476
0.00118475
0.00118473
0.00118472
0.0011847
0.0011847
0.00118469
0.00131998
0.00132004
0.00132014
0.00132029
0.00132052
0.00132083
0.00132122
0.00132167
0.00132218
0.00132274
0.00132337
0.00132405
0.00132475
0.00132545
0.00132617
0.00132692
0.00132768
0.00132844
0.00132918
0.00132992
0.00133066
0.00133143
0.00133225
0.00133315
0.00133415
0.00133527
0.00133653
0.00133799
0.00133989
0.00134267
0.00134629
0.00134995
0.00135358
0.00135748
0.00136128
0.00136487
0.00136823
0.00137132
0.00137413
0.00137667
0.00137895
0.00138099
0.00138282
0.00138444
0.00138588
0.00138714
0.00138824
0.00138919
0.00139
0.00139068
0.00139124
0.00139169
0.00139204
0.00139231
0.00139252
0.00139266
0.00139274
0.00139279
0.00139281
0.0013928
0.00139279
0.00139277
0.00139275
0.00139274
0.00139274
0.00151987
0.00151993
0.00152003
0.00152018
0.00152041
0.00152073
0.00152113
0.00152159
0.00152211
0.00152268
0.0015233
0.001524
0.00152476
0.00152555
0.00152633
0.0015271
0.00152785
0.00152859
0.00152932
0.00153004
0.00153078
0.00153154
0.00153237
0.00153328
0.00153431
0.00153549
0.00153683
0.00153844
0.00154052
0.00154343
0.00154729
0.00155151
0.00155565
0.00155993
0.00156404
0.00156791
0.00157151
0.00157482
0.00157783
0.00158055
0.00158299
0.00158517
0.00158713
0.00158886
0.0015904
0.00159175
0.00159293
0.00159395
0.00159482
0.00159556
0.00159617
0.00159667
0.00159707
0.00159737
0.00159758
0.00159773
0.00159782
0.00159787
0.00159788
0.00159787
0.00159785
0.00159783
0.00159781
0.0015978
0.00159779
0.00171749
0.00171755
0.00171766
0.00171781
0.00171805
0.00171838
0.0017188
0.0017193
0.00171986
0.00172047
0.00172111
0.0017218
0.00172252
0.00172329
0.00172409
0.00172488
0.00172565
0.0017264
0.00172715
0.00172789
0.00172866
0.00172947
0.00173036
0.00173135
0.00173248
0.00173377
0.00173527
0.00173713
0.0017396
0.00174267
0.00174638
0.00175078
0.00175551
0.00176032
0.00176482
0.001769
0.00177287
0.00177643
0.00177967
0.00178261
0.00178525
0.0017876
0.00178971
0.00179158
0.00179322
0.00179467
0.00179592
0.00179701
0.00179793
0.00179871
0.00179936
0.00179989
0.00180031
0.00180063
0.00180086
0.00180103
0.00180113
0.00180118
0.0018012
0.0018012
0.00180118
0.00180116
0.00180114
0.00180113
0.00180112
0.00191294
0.00191301
0.00191312
0.00191328
0.00191354
0.0019139
0.00191436
0.00191491
0.00191552
0.00191618
0.00191691
0.00191765
0.00191838
0.00191912
0.00191989
0.0019207
0.0019215
0.0019223
0.00192309
0.00192388
0.00192471
0.00192559
0.00192656
0.00192766
0.00192891
0.00193036
0.00193209
0.00193423
0.00193691
0.00193985
0.00194318
0.00194756
0.0019529
0.00195845
0.00196354
0.00196813
0.00197232
0.00197616
0.00197967
0.00198284
0.0019857
0.00198826
0.00199054
0.00199257
0.00199437
0.00199595
0.00199732
0.0019985
0.00199951
0.00200037
0.00200108
0.00200165
0.0020021
0.00200246
0.00200272
0.0020029
0.00200301
0.00200307
0.0020031
0.00200311
0.0020031
0.00200308
0.00200306
0.00200305
0.00200304
0.00210606
0.00210613
0.00210624
0.00210642
0.00210669
0.00210707
0.00210756
0.00210813
0.00210876
0.00210943
0.00211017
0.00211101
0.00211187
0.00211272
0.00211356
0.00211442
0.00211527
0.00211612
0.00211696
0.00211783
0.00211874
0.00211972
0.00212082
0.00212206
0.00212348
0.00212514
0.00212716
0.00212962
0.0021323
0.00213499
0.00213795
0.00214204
0.00214789
0.00215444
0.00216035
0.00216543
0.00216993
0.00217406
0.00217783
0.00218124
0.00218431
0.00218707
0.00218953
0.00219172
0.00219366
0.00219536
0.00219684
0.00219811
0.00219921
0.00220013
0.0022009
0.00220154
0.00220204
0.00220243
0.00220272
0.00220292
0.00220305
0.00220312
0.00220315
0.00220316
0.00220314
0.00220312
0.00220311
0.00220309
0.00220308
0.00229689
0.00229696
0.00229708
0.00229727
0.00229756
0.00229796
0.00229847
0.00229907
0.00229974
0.00230046
0.00230122
0.00230205
0.00230295
0.00230388
0.00230479
0.00230567
0.00230654
0.0023074
0.00230827
0.00230916
0.0023101
0.00231112
0.00231227
0.00231357
0.00231507
0.00231685
0.00231906
0.00232182
0.00232485
0.00232783
0.0023308
0.00233475
0.00234106
0.00234889
0.00235601
0.0023617
0.0023664
0.00237067
0.00237459
0.00237815
0.00238137
0.00238426
0.00238685
0.00238916
0.00239121
0.00239301
0.00239458
0.00239594
0.0023971
0.00239808
0.0023989
0.00239958
0.00240012
0.00240054
0.00240085
0.00240106
0.0024012
0.00240127
0.0024013
0.00240131
0.00240129
0.00240126
0.00240124
0.00240122
0.00240121
0.00248573
0.0024858
0.00248593
0.00248613
0.00248644
0.00248687
0.0024874
0.00248802
0.00248872
0.00248951
0.00249033
0.00249115
0.00249198
0.00249284
0.00249373
0.00249461
0.00249548
0.00249635
0.00249722
0.00249811
0.00249906
0.0025001
0.00250126
0.00250257
0.00250407
0.00250589
0.00250825
0.00251136
0.00251498
0.00251862
0.0025221
0.00252618
0.00253271
0.00254164
0.00255021
0.00255675
0.00256161
0.00256587
0.0025698
0.00257341
0.0025767
0.00257966
0.00258233
0.00258472
0.00258684
0.00258871
0.00259034
0.00259175
0.00259295
0.00259397
0.00259481
0.0025955
0.00259604
0.00259646
0.00259678
0.00259701
0.00259715
0.00259723
0.00259727
0.00259728
0.00259726
0.00259723
0.00259721
0.00259719
0.00259718
0.00267341
0.00267349
0.00267362
0.00267384
0.00267417
0.00267461
0.00267516
0.00267579
0.00267648
0.00267727
0.00267815
0.00267905
0.00267992
0.00268081
0.00268172
0.00268263
0.00268352
0.00268441
0.0026853
0.00268623
0.00268721
0.00268829
0.0026895
0.00269087
0.00269251
0.00269453
0.00269709
0.00270024
0.00270405
0.00270856
0.00271317
0.00271774
0.0027239
0.00273192
0.00274027
0.00274738
0.00275286
0.00275748
0.00276167
0.00276551
0.00276901
0.00277218
0.00277505
0.00277761
0.00277989
0.00278191
0.00278367
0.0027852
0.00278651
0.00278761
0.00278853
0.00278928
0.00278987
0.00279033
0.00279068
0.00279093
0.00279109
0.00279119
0.00279125
0.00279127
0.00279126
0.00279124
0.00279121
0.00279119
0.00279118
0.00285979
0.00285987
0.00286001
0.00286024
0.00286058
0.00286105
0.00286162
0.00286226
0.00286297
0.00286377
0.0028647
0.00286569
0.00286669
0.00286767
0.00286863
0.00286958
0.00287052
0.00287145
0.0028724
0.0028734
0.00287448
0.00287568
0.00287702
0.00287857
0.00288047
0.00288287
0.00288564
0.00288872
0.00289246
0.00289705
0.0029021
0.00290746
0.00291364
0.00292002
0.00292691
0.00293408
0.00294032
0.00294562
0.00295032
0.00295457
0.00295843
0.00296192
0.00296506
0.00296787
0.00297038
0.00297259
0.00297453
0.00297622
0.00297766
0.00297888
0.00297989
0.00298072
0.00298138
0.0029819
0.00298229
0.00298257
0.00298277
0.00298288
0.00298295
0.00298299
0.00298299
0.00298297
0.00298295
0.00298293
0.00298291
0.00304445
0.00304454
0.00304468
0.00304492
0.00304529
0.00304578
0.00304638
0.00304706
0.0030478
0.00304859
0.00304946
0.00305039
0.00305139
0.00305239
0.00305338
0.00305435
0.00305532
0.0030563
0.00305731
0.0030584
0.00305959
0.00306092
0.00306244
0.00306422
0.00306644
0.00306927
0.00307259
0.00307616
0.00307985
0.00308372
0.00308844
0.00309424
0.00310011
0.00310555
0.00311184
0.00311902
0.00312576
0.00313159
0.00313673
0.00314136
0.00314555
0.00314933
0.00315274
0.0031558
0.00315853
0.00316095
0.00316306
0.00316491
0.00316649
0.00316784
0.00316897
0.0031699
0.00317065
0.00317124
0.00317169
0.00317201
0.00317222
0.00317235
0.00317243
0.00317246
0.00317246
0.00317245
0.00317242
0.00317241
0.00317239
0.00322532
0.00322541
0.00322557
0.00322582
0.00322621
0.00322673
0.00322736
0.00322808
0.00322889
0.00322978
0.00323073
0.00323172
0.00323273
0.00323377
0.0032348
0.00323582
0.00323685
0.00323789
0.00323898
0.00324015
0.00324145
0.00324292
0.00324468
0.0032468
0.00324936
0.00325245
0.00325609
0.00325993
0.00326375
0.00326796
0.0032732
0.00327944
0.00328518
0.00329009
0.0032955
0.00330209
0.00330907
0.00331535
0.00332091
0.00332589
0.00333038
0.00333443
0.00333808
0.00334135
0.00334426
0.00334685
0.00334911
0.00335107
0.00335276
0.0033542
0.0033554
0.00335639
0.00335719
0.00335782
0.00335829
0.00335863
0.00335885
0.00335898
0.00335905
0.00335907
0.00335906
0.00335904
0.00335902
0.003359
0.00335899
0.0034038
0.0034039
0.00340407
0.00340433
0.00340473
0.00340525
0.00340589
0.00340661
0.00340745
0.00340839
0.00340942
0.00341048
0.00341153
0.00341259
0.00341364
0.00341469
0.00341573
0.0034168
0.0034179
0.00341909
0.00342041
0.00342192
0.00342379
0.00342613
0.00342886
0.00343193
0.00343553
0.00343961
0.00344395
0.0034489
0.00345476
0.00346148
0.00346821
0.00347388
0.00347879
0.00348455
0.00349125
0.00349773
0.00350361
0.00350891
0.00351368
0.00351798
0.00352185
0.00352533
0.00352844
0.0035312
0.00353363
0.00353573
0.00353754
0.00353907
0.00354035
0.0035414
0.00354225
0.00354291
0.00354341
0.00354377
0.00354401
0.00354416
0.00354423
0.00354425
0.00354425
0.00354422
0.0035442
0.00354418
0.00354417
0.00357963
0.00357973
0.0035799
0.00358018
0.0035806
0.00358115
0.00358182
0.00358259
0.00358343
0.00358433
0.00358526
0.00358625
0.0035873
0.00358837
0.00358944
0.00359051
0.00359157
0.00359266
0.00359378
0.00359498
0.00359629
0.00359779
0.00359968
0.00360209
0.00360496
0.00360831
0.00361229
0.0036168
0.00362157
0.00362671
0.00363275
0.00363986
0.00364739
0.00365407
0.00365983
0.00366598
0.00367271
0.00367931
0.00368541
0.00369095
0.00369595
0.00370048
0.00370456
0.00370824
0.00371154
0.00371448
0.00371706
0.00371932
0.00372126
0.00372291
0.00372428
0.00372541
0.00372632
0.00372702
0.00372755
0.00372795
0.00372822
0.00372839
0.00372848
0.00372852
0.00372853
0.00372851
0.00372849
0.00372847
0.00372845
0.0037508
0.0037509
0.00375109
0.00375138
0.00375182
0.00375241
0.00375312
0.00375394
0.00375488
0.00375593
0.00375701
0.00375812
0.00375926
0.00376042
0.00376156
0.00376268
0.0037638
0.00376492
0.00376607
0.00376726
0.0037686
0.00377026
0.00377237
0.003775
0.00377813
0.00378176
0.00378575
0.00379015
0.00379525
0.00380103
0.00380767
0.0038152
0.00382335
0.00383129
0.00383868
0.00384596
0.00385309
0.00385984
0.00386607
0.00387177
0.00387696
0.00388167
0.00388595
0.00388982
0.0038933
0.00389642
0.00389918
0.0039016
0.0039037
0.00390549
0.00390699
0.00390822
0.00390922
0.00390999
0.00391058
0.00391101
0.00391131
0.0039115
0.00391161
0.00391166
0.00391168
0.00391167
0.00391165
0.00391163
0.00391162
0.00392039
0.0039205
0.00392069
0.00392099
0.00392144
0.00392203
0.00392274
0.00392355
0.00392446
0.00392548
0.00392657
0.00392771
0.00392886
0.00393001
0.00393114
0.00393225
0.00393335
0.00393443
0.00393551
0.00393668
0.00393812
0.00393998
0.00394231
0.00394511
0.00394843
0.00395218
0.00395622
0.00396081
0.0039663
0.00397256
0.00397962
0.0039877
0.00399695
0.00400652
0.00401536
0.00402349
0.00403101
0.00403799
0.00404442
0.00405032
0.00405571
0.00406061
0.00406507
0.00406912
0.00407277
0.00407606
0.00407898
0.00408155
0.00408378
0.0040857
0.00408731
0.00408864
0.00408972
0.00409057
0.00409121
0.00409167
0.00409199
0.00409219
0.0040923
0.00409235
0.00409236
0.00409234
0.00409232
0.0040923
0.00409229
0.00408477
0.00408488
0.00408508
0.00408541
0.00408591
0.00408659
0.00408739
0.00408828
0.00408928
0.00409039
0.00409155
0.00409274
0.00409395
0.00409515
0.00409633
0.00409747
0.00409857
0.00409965
0.00410081
0.00410217
0.00410384
0.00410592
0.00410844
0.00411149
0.00411514
0.00411935
0.00412409
0.0041294
0.00413533
0.00414185
0.00414925
0.00415797
0.00416821
0.00417885
0.00418864
0.00419763
0.00420584
0.00421331
0.00422013
0.00422635
0.00423202
0.00423718
0.00424188
0.00424615
0.00425001
0.00425349
0.00425659
0.00425933
0.00426173
0.00426379
0.00426553
0.00426697
0.00426815
0.00426908
0.00426979
0.00427031
0.00427068
0.00427091
0.00427104
0.00427111
0.00427113
0.00427111
0.00427109
0.00427107
0.00427106
0.00424492
0.00424504
0.00424526
0.00424561
0.00424615
0.00424686
0.0042477
0.00424862
0.00424968
0.00425091
0.00425223
0.00425356
0.00425485
0.00425609
0.00425728
0.00425844
0.0042596
0.00426082
0.00426227
0.00426411
0.00426632
0.00426889
0.00427178
0.00427509
0.00427902
0.00428368
0.00428903
0.00429489
0.00430125
0.00430825
0.00431623
0.00432558
0.00433655
0.00434818
0.0043591
0.00436912
0.00437815
0.00438622
0.00439347
0.00440005
0.00440604
0.0044115
0.00441647
0.00442099
0.00442509
0.00442878
0.00443208
0.00443501
0.00443758
0.0044398
0.00444168
0.00444325
0.00444453
0.00444554
0.00444632
0.0044469
0.0044473
0.00444757
0.00444774
0.00444782
0.00444786
0.00444786
0.00444784
0.00444783
0.00444781
0.00440395
0.00440408
0.00440431
0.00440468
0.00440524
0.00440597
0.00440683
0.0044078
0.00440885
0.00440999
0.00441121
0.00441246
0.0044137
0.0044149
0.00441605
0.00441718
0.00441837
0.00441968
0.0044212
0.0044231
0.00442548
0.00442832
0.00443156
0.00443526
0.00443961
0.00444477
0.00445072
0.00445717
0.004464
0.00447144
0.00447992
0.00448993
0.00450185
0.00451457
0.00452659
0.00453772
0.00454769
0.00455643
0.00456418
0.00457113
0.00457744
0.00458319
0.00458843
0.00459319
0.00459751
0.00460141
0.0046049
0.00460801
0.00461074
0.0046131
0.00461512
0.00461681
0.00461818
0.00461928
0.00462011
0.0046207
0.0046211
0.00462136
0.00462152
0.0046216
0.00462163
0.00462163
0.00462162
0.0046216
0.00462159
0.00455845
0.0045586
0.00455884
0.00455923
0.00455982
0.00456058
0.00456149
0.00456254
0.00456368
0.00456488
0.00456616
0.0045675
0.00456885
0.00457015
0.00457141
0.00457265
0.00457397
0.00457544
0.00457713
0.00457909
0.00458146
0.00458436
0.00458783
0.00459194
0.00459682
0.00460243
0.00460864
0.00461541
0.00462275
0.00463081
0.00464004
0.00465091
0.00466374
0.00467745
0.00469065
0.00470325
0.00471457
0.00472418
0.00473245
0.0047398
0.00474643
0.00475244
0.00475793
0.00476292
0.00476745
0.00477154
0.00477521
0.00477847
0.00478135
0.00478384
0.00478598
0.00478777
0.00478924
0.00479041
0.00479128
0.0047919
0.00479231
0.00479258
0.00479274
0.00479282
0.00479284
0.00479284
0.00479283
0.00479281
0.00479281
0.00471022
0.00471037
0.00471062
0.00471103
0.00471164
0.00471242
0.00471334
0.00471439
0.00471552
0.00471665
0.00471782
0.00471904
0.00472031
0.00472159
0.00472286
0.00472418
0.00472563
0.00472732
0.00472929
0.00473155
0.00473421
0.00473736
0.00474108
0.00474552
0.00475071
0.00475648
0.00476273
0.00476978
0.00477776
0.00478665
0.00479669
0.00480825
0.00482178
0.00483629
0.00485063
0.00486532
0.00487899
0.00489001
0.00489886
0.00490653
0.00491342
0.00491967
0.00492537
0.00493058
0.00493531
0.0049396
0.00494345
0.00494689
0.00494992
0.00495256
0.00495482
0.00495673
0.00495831
0.00495957
0.00496054
0.00496124
0.00496171
0.00496201
0.00496217
0.00496225
0.00496227
0.00496227
0.00496226
0.00496224
0.00496223
0.00485754
0.0048577
0.00485797
0.0048584
0.00485904
0.00485986
0.00486082
0.00486191
0.00486309
0.00486429
0.00486547
0.00486664
0.00486785
0.00486911
0.00487043
0.00487188
0.0048735
0.00487534
0.00487745
0.00487988
0.00488275
0.00488616
0.0048902
0.00489494
0.00490038
0.00490646
0.00491329
0.00492105
0.00492972
0.0049392
0.00494978
0.00496184
0.00497585
0.00499085
0.00500601
0.00502287
0.00503997
0.0050537
0.00506365
0.00507158
0.0050786
0.00508498
0.00509081
0.00509615
0.00510103
0.00510548
0.00510949
0.00511308
0.00511625
0.00511902
0.00512141
0.00512342
0.00512508
0.00512642
0.00512747
0.00512824
0.00512877
0.0051291
0.00512927
0.00512935
0.00512938
0.00512937
0.00512936
0.00512934
0.00512934
0.00500147
0.00500164
0.00500192
0.00500237
0.00500303
0.00500387
0.00500483
0.00500593
0.00500714
0.00500841
0.00500972
0.00501105
0.0050124
0.00501379
0.00501525
0.00501684
0.00501859
0.0050205
0.00502265
0.00502514
0.0050281
0.0050317
0.00503608
0.00504122
0.00504705
0.00505354
0.00506087
0.00506914
0.00507828
0.00508838
0.00509971
0.00511258
0.00512747
0.00514339
0.00515922
0.00517628
0.00519468
0.00521153
0.00522403
0.00523296
0.00524036
0.005247
0.00525305
0.00525862
0.00526372
0.0052684
0.00527265
0.00527647
0.00527986
0.00528282
0.00528539
0.00528755
0.00528935
0.00529079
0.00529191
0.00529275
0.00529334
0.00529372
0.00529395
0.00529407
0.00529413
0.00529414
0.00529413
0.00529412
0.00529411
0.00514171
0.00514189
0.00514218
0.00514265
0.00514335
0.00514424
0.00514526
0.00514639
0.00514763
0.00514892
0.00515026
0.00515163
0.00515304
0.00515452
0.00515609
0.00515777
0.00515965
0.00516177
0.00516418
0.00516696
0.00517019
0.00517405
0.00517875
0.00518433
0.00519068
0.00519775
0.00520554
0.00521399
0.00522335
0.00523409
0.00524634
0.0052603
0.00527655
0.00529406
0.00531088
0.00532686
0.00534399
0.0053622
0.00537745
0.00538837
0.00539676
0.00540394
0.00541041
0.00541631
0.00542172
0.00542667
0.00543118
0.00543526
0.00543889
0.00544207
0.00544483
0.00544716
0.0054491
0.00545066
0.00545187
0.00545277
0.00545339
0.00545378
0.005454
0.00545412
0.00545416
0.00545416
0.00545415
0.00545414
0.00545413
0.00527615
0.00527633
0.00527664
0.00527714
0.00527789
0.00527884
0.00527991
0.00528109
0.00528236
0.00528369
0.00528506
0.00528648
0.00528796
0.00528953
0.00529121
0.00529305
0.00529516
0.00529768
0.00530064
0.00530404
0.00530784
0.00531213
0.00531718
0.00532316
0.00533004
0.00533769
0.00534592
0.00535474
0.00536459
0.00537596
0.00538894
0.00540376
0.00542103
0.00543964
0.00545741
0.00547385
0.00549081
0.00550935
0.00552667
0.00554013
0.00554998
0.00555783
0.00556474
0.005571
0.00557672
0.00558195
0.00558673
0.00559106
0.00559494
0.00559836
0.00560133
0.00560386
0.00560596
0.00560766
0.00560898
0.00560998
0.00561068
0.00561114
0.00561141
0.00561154
0.00561159
0.00561159
0.00561158
0.00561157
0.00561155
0.00540681
0.005407
0.00540733
0.00540785
0.00540863
0.00540961
0.00541074
0.00541197
0.00541327
0.00541464
0.00541606
0.00541753
0.00541906
0.0054207
0.0054225
0.0054245
0.00542675
0.00542937
0.00543249
0.00543613
0.00544033
0.00544513
0.00545067
0.00545712
0.00546449
0.00547269
0.00548158
0.00549121
0.00550187
0.00551391
0.00552751
0.00554298
0.00556096
0.00558025
0.00559857
0.00561564
0.00563289
0.00565167
0.00567129
0.00568851
0.00570098
0.00570982
0.00571701
0.00572346
0.00572935
0.00573475
0.00573969
0.00574419
0.00574826
0.00575187
0.00575503
0.00575774
0.00575999
0.00576182
0.00576324
0.00576429
0.00576503
0.00576552
0.0057658
0.00576594
0.005766
0.005766
0.00576599
0.00576597
0.00576596
0.00553276
0.00553297
0.00553331
0.00553385
0.00553464
0.00553564
0.00553682
0.0055381
0.00553943
0.00554083
0.00554231
0.00554387
0.00554554
0.00554731
0.00554925
0.00555141
0.00555387
0.00555669
0.00555999
0.00556387
0.00556837
0.00557356
0.00557955
0.00558646
0.00559436
0.0056032
0.00561292
0.0056235
0.00563511
0.00564802
0.0056624
0.00567867
0.00569759
0.00571796
0.00573737
0.00575511
0.00577191
0.00579001
0.00580985
0.00582907
0.00584473
0.00585587
0.00586398
0.00587081
0.00587697
0.0058826
0.00588776
0.00589247
0.00589673
0.00590055
0.00590391
0.00590681
0.00590925
0.00591123
0.00591278
0.00591392
0.00591471
0.00591521
0.00591548
0.00591561
0.00591564
0.00591564
0.00591562
0.0059156
0.00591559
0.00565406
0.00565427
0.00565463
0.00565519
0.005656
0.00565703
0.00565823
0.00565955
0.00566091
0.00566234
0.00566385
0.00566546
0.00566718
0.00566905
0.00567108
0.00567336
0.00567601
0.00567913
0.00568278
0.00568706
0.00569206
0.0056978
0.00570432
0.00571174
0.00572015
0.00572952
0.00573984
0.00575119
0.00576368
0.00577746
0.00579275
0.00581006
0.00583023
0.00585198
0.00587272
0.00589171
0.00590878
0.00592577
0.0059444
0.00596357
0.00598113
0.00599503
0.006005
0.00601272
0.00601942
0.00602548
0.00603102
0.00603605
0.00604061
0.0060447
0.00604831
0.00605146
0.00605412
0.00605631
0.00605804
0.00605934
0.00606024
0.00606082
0.00606114
0.00606128
0.00606133
0.00606132
0.0060613
0.00606128
0.00606126
0.00577008
0.0057703
0.00577067
0.00577125
0.0057721
0.00577317
0.00577442
0.00577579
0.00577721
0.00577871
0.00578029
0.00578196
0.00578372
0.00578565
0.00578778
0.00579018
0.00579294
0.00579618
0.00579999
0.00580448
0.00580981
0.00581602
0.00582312
0.00583113
0.0058401
0.0058501
0.0058612
0.00587342
0.00588679
0.00590144
0.00591768
0.00593609
0.00595758
0.00598075
0.00600272
0.00602257
0.00604047
0.00605773
0.00607556
0.0060942
0.00611268
0.00612912
0.00614185
0.00615117
0.00615864
0.00616522
0.0061712
0.00617665
0.00618157
0.006186
0.00618993
0.00619336
0.0061963
0.00619873
0.00620068
0.00620217
0.00620323
0.00620393
0.00620435
0.00620456
0.00620464
0.00620465
0.00620462
0.0062046
0.00620458
0.00587943
0.00587967
0.00588005
0.00588065
0.00588154
0.00588265
0.00588395
0.00588538
0.00588686
0.00588843
0.0058901
0.00589186
0.00589374
0.00589579
0.00589807
0.00590067
0.00590365
0.00590713
0.00591122
0.00591605
0.00592173
0.00592839
0.00593606
0.00594472
0.00595437
0.00596505
0.00597679
0.00598963
0.00600367
0.00601907
0.00603617
0.00605554
0.00607811
0.00610244
0.00612564
0.00614687
0.00616636
0.00618558
0.00620472
0.00622368
0.00624224
0.00625926
0.00627396
0.00628555
0.00629427
0.0063014
0.00630777
0.00631356
0.00631882
0.00632356
0.00632778
0.00633147
0.00633465
0.0063373
0.00633943
0.00634106
0.00634223
0.00634301
0.00634348
0.00634372
0.00634381
0.00634381
0.00634379
0.00634376
0.00634374
0.00598132
0.00598157
0.00598197
0.00598259
0.00598351
0.00598468
0.00598603
0.00598752
0.00598909
0.00599074
0.0059925
0.00599438
0.00599643
0.00599868
0.00600121
0.00600413
0.00600755
0.00601151
0.0060161
0.00602143
0.00602765
0.00603485
0.00604308
0.00605232
0.00606257
0.00607384
0.00608617
0.00609965
0.00611442
0.00613066
0.00614866
0.00616898
0.00619256
0.00621799
0.00624264
0.00626583
0.00628755
0.00630808
0.00632822
0.00634836
0.00636801
0.00638608
0.00640169
0.00641494
0.00642552
0.00643363
0.00644043
0.00644654
0.0064521
0.00645714
0.00646164
0.00646561
0.00646904
0.00647191
0.00647424
0.00647603
0.00647732
0.00647818
0.00647868
0.00647893
0.00647902
0.00647902
0.00647899
0.00647895
0.00647893
0.00607625
0.0060765
0.00607692
0.00607757
0.00607853
0.00607974
0.00608115
0.00608271
0.00608435
0.00608609
0.00608795
0.00608996
0.00609216
0.00609461
0.00609742
0.00610068
0.0061045
0.00610893
0.00611402
0.00611987
0.00612663
0.00613437
0.00614316
0.00615302
0.00616396
0.006176
0.00618921
0.00620366
0.00621946
0.00623678
0.00625592
0.00627745
0.00630234
0.00632906
0.00635513
0.0063802
0.0064038
0.00642542
0.0064456
0.00646542
0.00648504
0.00650456
0.00652246
0.00653765
0.00655034
0.00656028
0.006568
0.00657453
0.0065804
0.00658573
0.00659052
0.00659478
0.00659847
0.0066016
0.00660416
0.00660614
0.00660759
0.00660856
0.00660913
0.0066094
0.00660948
0.00660946
0.00660942
0.00660938
0.00660935
0.00616414
0.00616441
0.00616485
0.00616552
0.00616651
0.00616775
0.00616922
0.00617085
0.0061726
0.00617446
0.00617648
0.00617868
0.00618111
0.00618382
0.00618688
0.0061904
0.00619448
0.00619923
0.00620475
0.00621115
0.0062185
0.00622688
0.00623632
0.00624686
0.00625854
0.00627142
0.00628557
0.00630105
0.00631797
0.00633649
0.00635693
0.00637993
0.00640649
0.00643487
0.00646232
0.00648879
0.00651413
0.00653802
0.00656009
0.00658038
0.00659944
0.00661787
0.00663599
0.00665251
0.00666652
0.00667834
0.00668785
0.00669543
0.00670187
0.00670763
0.00671283
0.00671746
0.00672152
0.00672498
0.00672784
0.00673009
0.00673176
0.00673289
0.00673356
0.00673388
0.00673397
0.00673396
0.00673391
0.00673385
0.00673381
0.00624485
0.00624513
0.00624558
0.00624625
0.00624724
0.00624848
0.00624996
0.00625163
0.00625344
0.00625542
0.00625757
0.00625995
0.00626259
0.00626553
0.00626888
0.00627273
0.00627719
0.00628237
0.00628835
0.00629523
0.0063031
0.00631202
0.00632206
0.0063333
0.0063458
0.00635963
0.00637482
0.00639139
0.00640943
0.00642912
0.00645086
0.00647535
0.00650371
0.00653404
0.00656323
0.00659108
0.0066177
0.00664329
0.00666737
0.00668927
0.00670938
0.00672802
0.00674543
0.00676212
0.00677752
0.00679104
0.00680253
0.00681188
0.00681945
0.00682589
0.00683159
0.00683668
0.00684118
0.00684506
0.0068483
0.0068509
0.00685287
0.00685425
0.00685513
0.0068556
0.00685579
0.00685582
0.00685577
0.0068557
0.00685565
0.00631698
0.00631726
0.0063177
0.00631838
0.00631939
0.00632069
0.00632222
0.00632396
0.00632587
0.00632796
0.00633024
0.00633276
0.00633558
0.00633877
0.00634242
0.00634662
0.0063515
0.00635713
0.00636362
0.00637105
0.00637948
0.00638901
0.00639974
0.00641173
0.00642505
0.00643974
0.00645583
0.00647338
0.00649249
0.0065134
0.00653651
0.00656257
0.00659278
0.00662516
0.00665635
0.00668606
0.00671427
0.00674101
0.00676615
0.00678989
0.00681198
0.00683221
0.00685087
0.00686835
0.00688477
0.00689943
0.00691208
0.00692302
0.00693229
0.00693995
0.00694639
0.00695199
0.00695693
0.00696122
0.00696484
0.00696779
0.00697007
0.0069717
0.00697277
0.00697338
0.00697365
0.00697371
0.00697367
0.00697359
0.00697354
0.00637836
0.00637864
0.00637909
0.00637982
0.00638092
0.00638235
0.00638404
0.00638594
0.00638801
0.00639027
0.00639276
0.00639549
0.00639852
0.00640192
0.00640578
0.00641021
0.00641533
0.00642127
0.00642814
0.00643605
0.00644511
0.0064554
0.006467
0.00647994
0.00649427
0.00651002
0.00652724
0.00654601
0.00656644
0.00658872
0.00661326
0.00664086
0.00667284
0.00670726
0.00674063
0.00677253
0.00680292
0.00683197
0.00685949
0.00688536