/*--------------------------------*- C++ -*----------------------------------*\
| =========                 |                                                 |
| \\      /  F ield         | OpenFOAM: The Open Source CFD Toolbox           |
|  \\    /   O peration     | Version:  2412                                  |
|   \\  /    A nd           | Website:  www.openfoam.com                      |
|    \\/     M anipulation  |                                                 |
\*---------------------------------------------------------------------------*/
FoamFile
{
    version     2.0;
    format      ascii;
    arch        "LSB;label=32;scalar=64";
    class       surfaceScalarField;
    location    "1714";
    object      phi;
}
// * * * * * * * * * * * * * * * * * * * * * * * * * * * * * * * * * * * * * //

dimensions      [0 3 -1 0 0 0 0];

oriented        oriented;

internalField   nonuniform List<scalar> 
63919
(
1.13705e-05
-0.00106574
4.28298e-05
-0.00363325
9.16792e-05
-0.00679552
0.000151177
-0.0100684
0.000218012
-0.0132136
0.000292067
-0.0163436
0.000373676
-0.019573
0.000463455
-0.0229931
0.000561755
-0.0266774
0.000668935
-0.0306877
0.000785077
-0.0350806
0.000910253
-0.0399156
0.00104464
-0.0452576
0.00118915
-0.0511725
0.00134457
-0.0577281
0.00151161
-0.064997
0.00169013
-0.0730555
0.00187953
-0.0819831
0.0020783
-0.0918616
0.00228406
-0.102772
0.00249296
-0.114796
0.00270032
-0.128011
0.00290044
-0.142499
0.00308771
-0.158345
0.00325642
-0.175641
0.00340127
-0.194492
0.00351671
-0.215011
0.00359725
-0.237316
0.00363701
-0.261529
0.00362934
-0.287762
0.00356538
-0.31611
0.00343396
-0.346635
0.00322146
-0.379324
0.00297428
-0.339504
0.0027116
-0.303799
0.00244527
-0.271806
0.00218313
-0.243147
0.00193005
-0.217479
0.0016903
-0.194492
0.00146744
-0.173903
0.0012633
-0.155459
0.00107818
-0.138932
0.000911847
-0.124118
0.000763564
-0.110834
0.000632579
-0.098917
0.000518008
-0.0882223
0.000419163
-0.0786198
0.000334983
-0.0699932
0.000264292
-0.0622385
0.000205641
-0.0552629
0.000157884
-0.0489834
0.000119802
-0.0433249
9.02546e-05
-0.0382195
6.78975e-05
-0.0336053
5.14926e-05
-0.0294254
3.97224e-05
-0.0256267
3.14354e-05
-0.022158
2.55549e-05
-0.0189656
2.11827e-05
-0.0159897
1.74731e-05
-0.0131686
1.38555e-05
-0.0104382
9.90571e-06
-0.00772448
5.77877e-06
-0.00503841
1.9836e-06
-0.00265248
-0.000776605
7.22388e-06
-0.00107289
3.5578e-05
-0.00366146
8.79797e-05
-0.00684782
0.000157606
-0.0101379
0.000240474
-0.0132965
0.000335967
-0.016439
0.00044385
-0.0196809
0.000564144
-0.0231134
0.000696615
-0.0268099
0.000840964
-0.030832
0.000996689
-0.0352363
0.00116375
-0.0400826
0.0013424
-0.0454363
0.0015336
-0.0513637
0.00173776
-0.0579323
0.00195476
-0.065214
0.00218349
-0.0732843
0.00242175
-0.0822214
0.00266609
-0.092106
0.00291165
-0.103018
0.00315191
-0.115036
0.00337959
-0.128239
0.00358714
-0.142707
0.00376799
-0.158525
0.00391655
-0.17579
0.00402837
-0.194604
0.0040994
-0.215082
0.0041262
-0.237343
0.00410586
-0.261509
0.00403605
-0.287692
0.00391337
-0.315988
0.00373194
-0.346453
0.00348312
-0.379075
0.0032101
-0.339231
0.00292397
-0.303513
0.00263357
-0.271515
0.0023458
-0.242859
0.00206601
-0.2172
0.00179856
-0.194224
0.00154652
-0.173651
0.00131217
-0.155225
0.00109704
-0.138717
0.00090224
-0.123923
0.00072808
-0.11066
0.000574455
-0.0987633
0.00044076
-0.0880887
0.000326275
-0.0785053
0.000229956
-0.0698969
0.000150669
-0.0621592
8.68359e-05
-0.0551991
3.68532e-05
-0.0489334
-6.67947e-07
-0.0432874
-2.70553e-05
-0.0381931
-4.39577e-05
-0.0335884
-5.30458e-05
-0.0294163
-5.60096e-05
-0.0256237
-5.43931e-05
-0.0221596
-4.92853e-05
-0.0189707
-4.15746e-05
-0.0159974
-3.24944e-05
-0.0131777
-2.32049e-05
-0.0104475
-1.42416e-05
-0.00773334
-6.76522e-06
-0.00504579
-1.90715e-06
-0.00265728
-0.000778513
8.37761e-06
-0.00108129
3.56987e-05
-0.00368881
8.2657e-05
-0.00689481
0.000143058
-0.0101983
0.000213768
-0.0133672
0.000294537
-0.0165198
0.000385294
-0.0197716
0.000486046
-0.0232141
0.000596546
-0.0269204
0.000716332
-0.0309518
0.000844994
-0.035365
0.000983655
-0.0402213
0.00113378
-0.0455864
0.00129629
-0.0515262
0.00147172
-0.0581077
0.00165964
-0.0654019
0.00185927
-0.0734839
0.00206947
-0.0824316
0.00228763
-0.0923241
0.00250977
-0.10324
0.00273056
-0.115257
0.002944
-0.128452
0.00314397
-0.142907
0.003325
-0.158706
0.00348207
-0.175947
0.00361059
-0.194732
0.00370584
-0.215177
0.00376315
-0.2374
0.00377797
-0.261523
0.00374612
-0.28766
0.00366192
-0.315904
0.00351528
-0.346307
0.00329172
-0.378851
0.00303417
-0.338974
0.00275992
-0.303239
0.00248088
-0.271236
0.00220559
-0.242584
0.00194032
-0.216934
0.00168894
-0.193973
0.00145348
-0.173415
0.00123564
-0.155007
0.00103683
-0.138518
0.000857895
-0.123744
0.000698947
-0.110501
0.000559555
-0.0986239
0.000438763
-0.0879679
0.00033538
-0.0784019
0.000248135
-0.0698096
0.000175877
-0.0620869
0.000117314
-0.0551405
7.0852e-05
-0.0488869
3.50224e-05
-0.0432515
8.62609e-06
-0.0381667
-9.70348e-06
-0.03357
-2.13113e-05
-0.0294046
-2.75521e-05
-0.0256175
-2.96801e-05
-0.0221575
-2.84673e-05
-0.0189719
-2.44812e-05
-0.0160014
-1.88883e-05
-0.0131832
-1.27744e-05
-0.0104536
-6.97618e-06
-0.00773902
-2.60007e-06
-0.00505004
-4.17965e-07
-0.00265939
-0.000778931
8.58607e-06
-0.0010899
3.7994e-05
-0.00371825
8.92283e-05
-0.00694608
0.000155284
-0.0102644
0.00023244
-0.0134444
0.000320154
-0.0166075
0.000418338
-0.0198698
0.000527067
-0.0233229
0.000646164
-0.0270395
0.000775159
-0.0310808
0.000913593
-0.0355034
0.00106275
-0.0403704
0.00122457
-0.0457482
0.00139948
-0.0517011
0.00158695
-0.0582952
0.00178631
-0.0656012
0.00199676
-0.0736943
0.00221684
-0.0826516
0.00244341
-0.0925507
0.00267198
-0.103469
0.00289692
-0.115482
0.00311211
-0.128668
0.00331144
-0.143106
0.00348945
-0.158884
0.00364111
-0.176098
0.00376179
-0.194853
0.00384687
-0.215262
0.00389221
-0.237446
0.00389461
-0.261526
0.00385184
-0.287617
0.00375956
-0.315811
0.00360767
-0.346155
0.00338197
-0.378626
0.00312381
-0.338716
0.00284892
-0.302964
0.00256848
-0.270956
0.00229041
-0.242306
0.00202033
-0.216664
0.00176249
-0.193715
0.00152021
-0.173173
0.0012958
-0.154782
0.00109066
-0.138313
0.000905394
-0.123559
0.000740058
-0.110335
0.000594259
-0.0984781
0.000467284
-0.0878409
0.000358217
-0.0782928
0.000265956
-0.0697174
0.000189281
-0.0620103
0.000126953
-0.0550782
7.75412e-05
-0.0488375
3.94747e-05
-0.0432135
1.13401e-05
-0.0381385
-8.27929e-06
-0.0335504
-2.07764e-05
-0.0293922
-2.75387e-05
-0.0256107
-2.99123e-05
-0.0221551
-2.87965e-05
-0.018973
-2.49534e-05
-0.0160052
-1.95563e-05
-0.0131886
-1.35006e-05
-0.0104597
-7.72763e-06
-0.00774487
-3.28832e-06
-0.00505455
-7.98351e-07
-0.00266192
-0.000779729
8.63837e-06
-0.00109856
3.78051e-05
-0.00374745
8.84008e-05
-0.00699671
0.000153533
-0.0103295
0.000229662
-0.0135205
0.000316311
-0.0166942
0.000413374
-0.0199669
0.000520874
-0.0234304
0.000638628
-0.0271572
0.000766275
-0.0312084
0.000903765
-0.0356409
0.00105215
-0.0405188
0.0012128
-0.0459089
0.00138623
-0.0518745
0.00157201
-0.058481
0.00176985
-0.0657991
0.00197908
-0.0739036
0.00219773
-0.0828703
0.00242245
-0.0927754
0.00264871
-0.103695
0.00287104
-0.115704
0.00308364
-0.12888
0.00328093
-0.143303
0.0034579
-0.159061
0.0036099
-0.17625
0.00373236
-0.194975
0.0038204
-0.21535
0.00386924
-0.237495
0.00387548
-0.261532
0.00383838
-0.28758
0.00375469
-0.315728
0.00361146
-0.346012
0.00339108
-0.378405
0.00313456
-0.338459
0.00285927
-0.302688
0.0025771
-0.270674
0.0022965
-0.242025
0.00202369
-0.216392
0.00176325
-0.193454
0.00151847
-0.172928
0.00129164
-0.154555
0.00108426
-0.138106
0.000897053
-0.123372
0.000730179
-0.110168
0.000583255
-0.0983312
0.000455527
-0.0877132
0.000345972
-0.0781833
0.000253436
-0.0696248
0.000176684
-0.0619335
0.000114432
-0.055016
6.53434e-05
-0.0487884
2.79228e-05
-0.0431761
6.21478e-07
-0.0381113
-1.79896e-05
-0.0335318
-2.93568e-05
-0.0293808
-3.48914e-05
-0.0256052
-3.59797e-05
-0.022154
-3.34788e-05
-0.0189755
-2.81656e-05
-0.0160106
-2.14294e-05
-0.0131954
-1.43996e-05
-0.0104667
-8.0279e-06
-0.00775131
-3.28837e-06
-0.00505937
-7.27105e-07
-0.00266453
-0.000780456
8.87188e-06
-0.00110745
3.90142e-05
-0.00377762
9.13305e-05
-0.00704905
0.000158631
-0.0103969
0.000237177
-0.0135991
0.00032635
-0.0167833
0.000425976
-0.0200666
0.000536021
-0.0235404
0.000656358
-0.0272776
0.000786915
-0.031339
0.000928338
-0.0357823
0.00108157
-0.0406721
0.00124661
-0.0460739
0.00142368
-0.0520516
0.00161344
-0.0586708
0.0018157
-0.0660013
0.00202913
-0.074117
0.0022514
-0.0830925
0.00247893
-0.0930029
0.0027071
-0.103923
0.00293046
-0.115928
0.00314345
-0.129093
0.0033408
-0.143501
0.00351784
-0.159238
0.00367019
-0.176403
0.00379338
-0.195099
0.00388229
-0.215439
0.00393151
-0.237544
0.00393723
-0.261538
0.00390054
-0.287543
0.00382012
-0.315647
0.00368027
-0.345872
0.00346052
-0.378185
0.0032032
-0.338202
0.00292638
-0.302412
0.00264184
-0.270389
0.00235789
-0.241741
0.0020808
-0.216114
0.00181537
-0.193189
0.00156522
-0.172678
0.00133293
-0.154323
0.0011202
-0.137893
0.000927905
-0.123179
0.000756282
-0.109997
0.000605013
-0.0981799
0.000473392
-0.0875815
0.000360414
-0.0780703
0.000264913
-0.0695293
0.000185609
-0.0618542
0.000121188
-0.0549515
7.02229e-05
-0.0487374
3.10694e-05
-0.0431369
2.2107e-06
-0.0380824
-1.7586e-05
-0.033512
-2.97549e-05
-0.0293686
-3.57243e-05
-0.0255992
-3.69719e-05
-0.0221528
-3.43833e-05
-0.0189781
-2.87987e-05
-0.0160162
-2.17377e-05
-0.0132024
-1.45552e-05
-0.0104739
-8.13593e-06
-0.00775771
-3.37109e-06
-0.00506411
-7.63517e-07
-0.00266713
-0.00078122
9.18922e-06
-0.00111666
4.03246e-05
-0.00380878
9.41866e-05
-0.00710293
0.000163187
-0.0104659
0.000243406
-0.0136793
0.000334181
-0.0168741
0.00043536
-0.0201677
0.000546912
-0.023652
0.000668571
-0.0273993
0.000800109
-0.0314705
0.000942617
-0.0359248
0.00109784
-0.0408273
0.00126623
-0.0462423
0.00144728
-0.0522326
0.00164073
-0.0588642
0.00184625
-0.0662068
0.00206241
-0.0743332
0.0022867
-0.0833168
0.00251547
-0.0932317
0.00274408
-0.104152
0.0029673
-0.116151
0.00317985
-0.129306
0.00337687
-0.143698
0.00355408
-0.159416
0.00370749
-0.176556
0.00383293
-0.195224
0.0039254
-0.215531
0.00397896
-0.237597
0.00398876
-0.261547
0.00395561
-0.28751
0.00387899
-0.315571
0.00374173
-0.345734
0.00352131
-0.377965
0.00326261
-0.337943
0.00298399
-0.302133
0.00269666
-0.270102
0.00240874
-0.241454
0.00212674
-0.215832
0.00185584
-0.192918
0.00160005
-0.172422
0.00136222
-0.154085
0.00114423
-0.137675
0.000947087
-0.122982
0.000771066
-0.109821
0.000615877
-0.0980247
0.000480811
-0.0874464
0.000364852
-0.0779543
0.000266796
-0.0694313
0.000185326
-0.0617727
0.000119075
-0.0548853
6.66429e-05
-0.048685
2.63801e-05
-0.0430966
-3.243e-06
-0.0380528
-2.34637e-05
-0.0334918
-3.56441e-05
-0.0293564
-4.12559e-05
-0.0255936
-4.17864e-05
-0.0221523
-3.84144e-05
-0.0189815
-3.20642e-05
-0.0160225
-2.41146e-05
-0.0132104
-1.60634e-05
-0.010482
-8.94231e-06
-0.00776478
-3.68808e-06
-0.00506932
-8.22809e-07
-0.00266996
-0.000782042
9.42062e-06
-0.00112609
4.13816e-05
-0.00384076
9.65857e-05
-0.00715815
0.000167104
-0.0105364
0.000248976
-0.0137612
0.000341661
-0.0169668
0.000445145
-0.0202712
0.000559487
-0.0237663
0.00068434
-0.0275241
0.00081911
-0.0316053
0.000964677
-0.0360704
0.00112273
-0.0409853
0.00129419
-0.0464138
0.0014791
-0.0524175
0.00167665
-0.0590618
0.00188584
-0.066416
0.00210501
-0.0745523
0.00233159
-0.0835434
0.00256187
-0.093462
0.00279129
-0.104381
0.00301479
-0.116374
0.00322732
-0.129518
0.00342434
-0.143895
0.00360185
-0.159593
0.00375623
-0.17671
0.00388382
-0.195352
0.00398035
-0.215628
0.00404073
-0.237658
0.00406016
-0.261567
0.00403406
-0.287484
0.00395731
-0.315494
0.00381706
-0.345594
0.00359388
-0.377742
0.00333388
-0.337683
0.00305428
-0.301853
0.00276491
-0.269812
0.00247338
-0.241162
0.0021864
-0.215545
0.00190965
-0.192641
0.0016476
-0.17216
0.00140351
-0.153841
0.00117948
-0.137451
0.000976681
-0.122779
0.000795463
-0.109639
0.00063556
-0.0978648
0.000496256
-0.0873071
0.000376512
-0.0778346
0.000275092
-0.0693298
0.000190639
-0.0616883
0.000121764
-0.0548164
6.71415e-05
-0.0486304
2.53774e-05
-0.0430549
-5.12495e-06
-0.0380223
-2.59011e-05
-0.033471
-3.83815e-05
-0.029344
-4.40317e-05
-0.0255879
-4.43408e-05
-0.022152
-4.07442e-05
-0.0189851
-3.42526e-05
-0.016029
-2.58744e-05
-0.0132188
-1.72017e-05
-0.0104906
-9.58753e-06
-0.00777247
-3.97839e-06
-0.00507501
-9.08845e-07
-0.00267308
-0.000782951
9.4308e-06
-0.00113553
4.14409e-05
-0.00387279
9.67094e-05
-0.00721344
0.000167401
-0.0106071
0.000249864
-0.0138437
0.000343758
-0.0170607
0.000449182
-0.0203767
0.000566238
-0.0238834
0.000694649
-0.0276525
0.00083392
-0.0317446
0.00098458
-0.0362211
0.00114729
-0.041148
0.00132222
-0.0465887
0.0015099
-0.0526052
0.00171019
-0.0592621
0.00192198
-0.0666278
0.00214349
-0.0747739
0.002372
-0.0837719
0.00260374
-0.0936937
0.00283411
-0.104611
0.00305815
-0.116598
0.00327105
-0.129731
0.00346847
-0.144092
0.00364668
-0.159771
0.00380236
-0.176866
0.00393241
-0.195482
0.00403347
-0.215729
0.00410141
-0.237726
0.00413274
-0.261598
0.00411763
-0.287469
0.00404159
-0.315418
0.00389566
-0.345448
0.00366836
-0.377515
0.00340699
-0.337422
0.00312685
-0.301573
0.00283559
-0.269521
0.00254013
-0.240867
0.0022476
-0.215253
0.00196438
-0.192358
0.00169554
-0.171891
0.00144475
-0.15359
0.00121439
-0.13722
0.00100572
-0.122571
0.000819169
-0.109453
0.000654489
-0.0977002
0.000510955
-0.0871636
0.000387501
-0.0777112
0.00028287
-0.0692252
0.000195671
-0.0616011
0.000124475
-0.0547452
6.78196e-05
-0.0485737
2.42606e-05
-0.0430113
-7.68969e-06
-0.0379903
-2.95466e-05
-0.0334492
-4.28191e-05
-0.0293307
-4.90015e-05
-0.0255818
-4.95918e-05
-0.0221514
-4.60735e-05
-0.0189886
-3.93969e-05
-0.0160357
-3.03685e-05
-0.0132279
-2.05809e-05
-0.0105005
-1.1594e-05
-0.00778157
-4.83789e-06
-0.00508188
-1.11219e-06
-0.00267687
-0.000784063
9.492e-06
-0.00114504
4.17195e-05
-0.00390504
9.7338e-05
-0.00726908
0.000168645
-0.0106784
0.000252249
-0.0139273
0.000347924
-0.0171564
0.000455692
-0.0204844
0.000575408
-0.0240031
0.000706474
-0.0277836
0.00084841
-0.0318865
0.00100268
-0.0363754
0.00117
-0.0413154
0.0013496
-0.0467683
0.00154109
-0.0527967
0.00174444
-0.0594654
0.00195921
-0.0668426
0.00218352
-0.0749982
0.00241441
-0.0840028
0.00264797
-0.0939273
0.00287961
-0.104843
0.00310454
-0.116823
0.00331818
-0.129945
0.00351642
-0.14429
0.00369565
-0.15995
0.00385274
-0.177023
0.00398515
-0.195614
0.00409095
-0.215835
0.00416771
-0.237802
0.00421118
-0.261642
0.00420659
-0.287464
0.00413346
-0.315345
0.00398307
-0.345298
0.00375113
-0.377283
0.00348824
-0.337159
0.00320789
-0.301293
0.00291473
-0.269228
0.00261479
-0.240567
0.00231592
-0.214954
0.00202545
-0.192068
0.00174915
-0.171615
0.00149109
-0.153332
0.00125386
-0.136983
0.00103884
-0.122356
0.000846492
-0.109261
0.000676571
-0.0975302
0.000528347
-0.0870154
0.000400739
-0.0775835
0.000292478
-0.069117
0.000202165
-0.0615108
0.000128365
-0.0546714
6.95707e-05
-0.0485149
2.42217e-05
-0.042966
-9.20416e-06
-0.0379569
-3.21442e-05
-0.0334263
-4.61434e-05
-0.0293167
-5.27397e-05
-0.0255752
-5.34824e-05
-0.0221507
-4.98711e-05
-0.0189923
-4.28906e-05
-0.0160427
-3.33521e-05
-0.0132374
-2.28501e-05
-0.010511
-1.29161e-05
-0.00779148
-5.3679e-06
-0.00508941
-1.21133e-06
-0.00268102
-0.000785275
9.77232e-06
-0.00115484
4.29547e-05
-0.00393827
0.00010014
-0.0073263
0.000173455
-0.0107518
0.000259529
-0.0140134
0.000358157
-0.017255
0.000469218
-0.0205955
0.00059223
-0.0241261
0.000726168
-0.0279176
0.000870137
-0.0320305
0.00102584
-0.0365311
0.0011952
-0.0414847
0.00137818
-0.0469513
0.00157389
-0.0529924
0.00178152
-0.059673
0.00200011
-0.0670612
0.00222756
-0.0752256
0.00246084
-0.0842361
0.00269609
-0.0941625
0.00292894
-0.105076
0.00315485
-0.117049
0.00336951
-0.130159
0.00356898
-0.14449
0.00374968
-0.160131
0.00390836
-0.177182
0.0040426
-0.195748
0.00415176
-0.215944
0.00423616
-0.237887
0.00428929
-0.261695
0.00429454
-0.28747
0.00422959
-0.31528
0.00407873
-0.345147
0.00384307
-0.377047
0.00357821
-0.336894
0.00329733
-0.301012
0.00300157
-0.268932
0.00269593
-0.240261
0.00238968
-0.214648
0.00209126
-0.191769
0.00180713
-0.171331
0.00154165
-0.153067
0.00129753
-0.136739
0.00107617
-0.122134
0.000878034
-0.109062
0.000702882
-0.0973551
0.00054996
-0.0868625
0.000418153
-0.0774517
0.000306131
-0.0690049
0.000212449
-0.0614171
0.00013564
-0.0545946
7.42502e-05
-0.0484535
2.68629e-05
-0.0429186
-8.05912e-06
-0.037922
-3.21415e-05
-0.0334022
-4.69337e-05
-0.0293019
-5.3999e-05
-0.0255681
-5.48831e-05
-0.0221498
-5.11427e-05
-0.018996
-4.3799e-05
-0.0160501
-3.38167e-05
-0.0132474
-2.29789e-05
-0.0105218
-1.29165e-05
-0.0078015
-5.35048e-06
-0.00509694
-1.20264e-06
-0.00268514
-0.000786477
1.0094e-05
-0.00116497
4.4367e-05
-0.0039726
0.000103369
-0.00738535
0.00017899
-0.0108274
0.000267799
-0.0141022
0.000369475
-0.0173567
0.00048366
-0.0207097
0.000609746
-0.0242522
0.000746981
-0.0280548
0.000895388
-0.0321789
0.00105545
-0.0366911
0.00122817
-0.0416574
0.00141426
-0.0471374
0.00161327
-0.0531914
0.00182422
-0.059884
0.00204566
-0.0672826
0.00227546
-0.0754554
0.00251062
-0.0844712
0.00274737
-0.0943993
0.00298146
-0.10531
0.00320856
-0.117276
0.0034246
-0.130375
0.00362585
-0.144691
0.00380882
-0.160314
0.00397013
-0.177343
0.00410684
-0.195885
0.00421833
-0.216056
0.00430628
-0.237975
0.00436579
-0.261754
0.00438167
-0.287486
0.00432896
-0.315227
0.00418512
-0.345003
0.00394833
-0.37681
0.0036797
-0.336625
0.00339582
-0.300728
0.00309525
-0.268632
0.00278183
-0.239948
0.00246688
-0.214333
0.0021599
-0.191462
0.00186771
-0.171039
0.00159475
-0.152794
0.00134371
-0.136488
0.00111595
-0.121906
0.000911936
-0.108858
0.000731421
-0.0971746
0.000573682
-0.0867047
0.000437609
-0.0773157
0.000321858
-0.0688892
0.000224933
-0.0613202
0.000145303
-0.054515
8.1458e-05
-0.0483897
3.19138e-05
-0.042869
-4.94577e-06
-0.0378851
-3.07e-05
-0.0333764
-4.68089e-05
-0.0292858
-5.47932e-05
-0.0255601
-5.62015e-05
-0.0221484
-5.2629e-05
-0.0189996
-4.50966e-05
-0.0160576
-3.46107e-05
-0.0132579
-2.32827e-05
-0.0105332
-1.30265e-05
-0.0078118
-5.39556e-06
-0.00510462
-1.22117e-06
-0.00268934
-0.000787699
1.04427e-05
-0.00117545
4.58724e-05
-0.0040081
0.000106766
-0.0074463
0.000185164
-0.0109059
0.000277309
-0.0141944
0.000382321
-0.0174618
0.000499523
-0.0208269
0.000628161
-0.0243809
0.000767759
-0.0281944
0.000919696
-0.0323308
0.00108467
-0.0368561
0.0012621
-0.0418349
0.00145155
-0.0473269
0.00165297
-0.0533928
0.00186616
-0.0600972
0.00208981
-0.0675063
0.00232167
-0.0756873
0.0025586
-0.0847082
0.00279678
-0.0946375
0.00303204
-0.105545
0.00326025
-0.117504
0.00347757
-0.130593
0.00368055
-0.144894
0.00386605
-0.1605
0.00403106
-0.177508
0.00417232
-0.196026
0.0042882
-0.216171
0.00437961
-0.238066
0.00444301
-0.261818
0.0044665
-0.287509
0.00442734
-0.315188
0.00429823
-0.344874
0.00406698
-0.376579
0.00379254
-0.336351
0.00349899
-0.300435
0.00318852
-0.268321
0.0028647
-0.239624
0.00254023
-0.214008
0.00222485
-0.191147
0.00192512
-0.170739
0.00164525
-0.152514
0.00138776
-0.136231
0.00115394
-0.121673
0.000944238
-0.108649
0.000758444
-0.0969888
0.000595868
-0.0865422
0.000455448
-0.0771753
0.000335878
-0.0687696
0.000235664
-0.06122
0.000153223
-0.0544325
8.69288e-05
-0.0483234
3.51879e-05
-0.0428173
-3.72243e-06
-0.0378462
-3.13569e-05
-0.0333488
-4.90427e-05
-0.0292682
-5.82478e-05
-0.025551
-6.05145e-05
-0.0221461
-5.7439e-05
-0.0190027
-4.99379e-05
-0.0160652
-3.88711e-05
-0.013269
-2.64507e-05
-0.0105456
-1.48972e-05
-0.00782346
-6.19452e-06
-0.00511344
-1.41224e-06
-0.00269419
-0.000789111
1.0841e-05
-0.00118635
4.76269e-05
-0.00404497
0.000110707
-0.00750945
0.000192368
-0.0109876
0.000288354
-0.0142904
0.00039715
-0.0175706
0.00051785
-0.0209477
0.00064935
-0.0245124
0.000790785
-0.0283359
0.00094381
-0.0324839
0.00111061
-0.0370229
0.00129093
-0.0420152
0.00148372
-0.0475197
0.00168873
-0.0535979
0.00190539
-0.0603139
0.00213208
-0.067733
0.00236634
-0.0759216
0.00260497
-0.0849468
0.00284425
-0.0948768
0.00308023
-0.105781
0.00330906
-0.117733
0.00352709
-0.130811
0.00373107
-0.145098
0.00391826
-0.160687
0.00408691
-0.177677
0.00423537
-0.196175
0.00436058
-0.216297
0.00445834
-0.238164
0.00452296
-0.261882
0.00454899
-0.287535
0.00452011
-0.315159
0.00440763
-0.344762
0.00419169
-0.376363
0.00391297
-0.336072
0.00360188
-0.300124
0.00327466
-0.267994
0.00293934
-0.239288
0.00260647
-0.213676
0.00228425
-0.190825
0.00197836
-0.170433
0.00169258
-0.152228
0.00142931
-0.135967
0.00118986
-0.121433
0.000974719
-0.108434
0.000783727
-0.0967978
0.000616255
-0.0863747
0.000471298
-0.0770303
0.000347609
-0.0686459
0.000243747
-0.0611161
0.000158168
-0.054347
8.92411e-05
-0.0482545
3.53559e-05
-0.0427634
-5.22525e-06
-0.0378057
-3.41366e-05
-0.0333199
-5.28078e-05
-0.0292495
-6.27273e-05
-0.025541
-6.54599e-05
-0.0221434
-6.25876e-05
-0.0190056
-5.49726e-05
-0.0160728
-4.337e-05
-0.0132806
-2.99612e-05
-0.0105591
-1.69994e-05
-0.00783639
-7.06116e-06
-0.00512334
-1.58711e-06
-0.00269965
-0.000790698
1.12063e-05
-0.0011976
4.92335e-05
-0.00408308
0.000114297
-0.00757458
0.000198581
-0.0110719
0.0002977
-0.0143896
0.000410039
-0.017683
0.000534569
-0.0210722
0.000669817
-0.0246477
0.000814383
-0.0284804
0.000969953
-0.0326395
0.00113905
-0.0371921
0.00132207
-0.0421982
0.00151837
-0.047716
0.0017271
-0.0538066
0.00194705
-0.0605338
0.0021764
-0.0679623
0.00241267
-0.0761578
0.00265272
-0.0851869
0.00289302
-0.0951171
0.00312985
-0.106018
0.00335955
-0.117963
0.00357866
-0.13103
0.00378392
-0.145303
0.00397263
-0.160876
0.00414434
-0.177849
0.00430027
-0.196331
0.00443675
-0.216433
0.00454448
-0.238272
0.00461606
-0.261954
0.00464427
-0.287563
0.00461677
-0.315131
0.00451496
-0.34466
0.00431486
-0.376163
0.00403522
-0.335793
0.00370816
-0.299797
0.00336526
-0.267651
0.0030196
-0.238943
0.00267934
-0.213335
0.00235096
-0.190496
0.00203928
-0.170121
0.00174775
-0.151937
0.0014787
-0.135698
0.00123348
-0.121188
0.00101271
-0.108213
0.000816295
-0.0966014
0.000643681
-0.0862021
0.000493914
-0.0768805
0.000365786
-0.0685178
0.000257903
-0.0610082
0.000168773
-0.0542578
9.68267e-05
-0.0481825
4.04475e-05
-0.042707
-2.01461e-06
-0.0377632
-3.21964e-05
-0.0332897
-5.17093e-05
-0.02923
-6.21758e-05
-0.0255306
-6.52338e-05
-0.0221403
-6.25374e-05
-0.0190082
-5.50617e-05
-0.0160802
-4.36475e-05
-0.013292
-3.03e-05
-0.0105724
-1.72299e-05
-0.0078494
-7.15086e-06
-0.00513336
-1.60238e-06
-0.00270516
-0.0007923
1.15213e-05
-0.00120916
5.06593e-05
-0.00412228
0.000117554
-0.00764152
0.000204231
-0.0111586
0.000306268
-0.0144916
0.000421883
-0.0177986
0.000549957
-0.0212003
0.000689291
-0.024787
0.00083885
-0.02863
0.00099961
-0.0328002
0.00117268
-0.0373651
0.00135867
-0.0423842
0.00155783
-0.0479152
0.00176934
-0.0540181
0.0019919
-0.0607564
0.00222365
-0.0681941
0.00246204
-0.0763962
0.00270395
-0.0854288
0.00294584
-0.095359
0.00318413
-0.106256
0.00341534
-0.118194
0.00363627
-0.131251
0.00384392
-0.145511
0.00403559
-0.161067
0.00421128
-0.178024
0.00437268
-0.196492
0.00451751
-0.216578
0.00463657
-0.238391
0.00471835
-0.262036
0.00474909
-0.287594
0.00472119
-0.315104
0.0046273
-0.344566
0.00443472
-0.37597
0.00415475
-0.335513
0.00382107
-0.299463
0.00346792
-0.267298
0.00311328
-0.238588
0.00276559
-0.212988
0.0024306
-0.190161
0.00211259
-0.169803
0.00181474
-0.151639
0.00153931
-0.135423
0.00128775
-0.120936
0.00106076
-0.107986
0.000858372
-0.096399
0.000680118
-0.0860238
0.0005251
-0.0767255
0.000392135
-0.0683848
0.000279832
-0.0608959
0.000186707
-0.0541647
0.000111229
-0.0481071
5.18854e-05
-0.0426477
7.15178e-06
-0.0377185
-2.46427e-05
-0.0332579
-4.52843e-05
-0.0292093
-5.6492e-05
-0.0255194
-5.99915e-05
-0.0221368
-5.75059e-05
-0.0190107
-5.04721e-05
-0.0160873
-4.00195e-05
-0.0133024
-2.76971e-05
-0.0105847
-1.57039e-05
-0.00786143
-6.51033e-06
-0.00514259
-1.46524e-06
-0.00271022
-0.000793766
1.20342e-05
-0.0012212
5.28123e-05
-0.00416307
0.000122265
-0.00771099
0.000211958
-0.0112483
0.000317125
-0.0145968
0.000435577
-0.0179171
0.000565946
-0.0213307
0.000707178
-0.0249283
0.000859277
-0.0287821
0.00102384
-0.0329648
0.0012018
-0.0375431
0.00139261
-0.042575
0.00159587
-0.0481184
0.00181117
-0.0542334
0.00203726
-0.0609825
0.00227224
-0.0684291
0.00251354
-0.0766375
0.00275802
-0.0856732
0.00300218
-0.0956031
0.00324248
-0.106497
0.00347559
-0.118427
0.00369866
-0.131474
0.00390957
-0.145722
0.00410696
-0.161265
0.00429034
-0.178208
0.00445871
-0.19666
0.00461016
-0.216729
0.00473611
-0.238517
0.00482229
-0.262122
0.00485682
-0.287629
0.00483218
-0.315079
0.00474091
-0.344475
0.00454966
-0.375779
0.00427306
-0.335236
0.003938
-0.299128
0.00357673
-0.266937
0.0032145
-0.238226
0.00286011
-0.212633
0.00251883
-0.18982
0.00219451
-0.169479
0.00189015
-0.151335
0.00160804
-0.135141
0.00134971
-0.120678
0.00111603
-0.107752
0.000907197
-0.0961902
0.000722871
-0.0858395
0.000562253
-0.0765649
0.000424215
-0.0682468
0.000307369
-0.0607791
0.000210198
-0.0540675
0.000131111
-0.048028
6.85363e-05
-0.0425851
2.09062e-05
-0.0376709
-1.34333e-05
-0.0332236
-3.62117e-05
-0.0291866
-4.91039e-05
-0.0255065
-5.38366e-05
-0.0221322
-5.21684e-05
-0.0190124
-4.59472e-05
-0.0160935
-3.65288e-05
-0.0133119
-2.51944e-05
-0.0105961
-1.42453e-05
-0.00787249
-5.93797e-06
-0.00515103
-1.35944e-06
-0.00271487
-0.000795125
1.26553e-05
-0.00123387
5.55384e-05
-0.00420597
0.000128326
-0.0077838
0.000221769
-0.0113418
0.00033069
-0.0147057
0.000452788
-0.0180392
0.00058657
-0.0214645
0.000730754
-0.0250724
0.000885917
-0.0289373
0.00105397
-0.0331328
0.00123577
-0.0377249
0.00143046
-0.0427697
0.00163733
-0.0483253
0.00185601
-0.0544521
0.00208529
-0.0612118
0.00232327
-0.068667
0.00256732
-0.0768816
0.00281427
-0.0859202
0.00306063
-0.0958495
0.00330291
-0.106739
0.00353792
-0.118662
0.00376309
-0.131699
0.00397746
-0.145936
0.00418174
-0.161469
0.00437482
-0.178401
0.00455206
-0.196838
0.00471008
-0.216887
0.00484245
-0.238649
0.00493497
-0.262214
0.00497582
-0.287669
0.00495385
-0.315057
0.00485731
-0.344378
0.00466094
-0.375583
0.00438643
-0.334961
0.00405237
-0.298794
0.00368829
-0.266573
0.00332121
-0.237859
0.00296133
-0.212273
0.002614
-0.189473
0.00228308
-0.169148
0.00197166
-0.151023
0.00168217
-0.134851
0.00141633
-0.120412
0.00117517
-0.107511
0.000959061
-0.0959741
0.000767833
-0.0856483
0.000600803
-0.0763979
0.000456928
-0.0681029
0.000334868
-0.0606571
0.000233105
-0.0539658
0.000149991
-0.0479449
8.3847e-05
-0.042519
3.297e-05
-0.03762
-4.4508e-06
-0.0331862
-3.00996e-05
-0.029161
-4.54267e-05
-0.0254912
-5.20918e-05
-0.0221255
-5.18399e-05
-0.0190127
-4.65568e-05
-0.0160989
-3.75369e-05
-0.013321
-2.60834e-05
-0.0106076
-1.47934e-05
-0.0078838
-6.18034e-06
-0.00515967
-1.40746e-06
-0.00271966
-0.000796532
1.29797e-05
-0.00124687
5.7003e-05
-0.00425002
0.000131672
-0.00785849
0.000227532
-0.0114376
0.000339336
-0.0148175
0.000464726
-0.0181646
0.000602287
-0.021602
0.00075105
-0.0252212
0.000911545
-0.0290978
0.00108434
-0.0333057
0.00126921
-0.0379098
0.00146638
-0.0429669
0.00167617
-0.0485351
0.00189802
-0.0546739
0.0021305
-0.0614443
0.00237149
-0.068908
0.00261821
-0.0771283
0.00286744
-0.0861694
0.00311573
-0.0960978
0.00335968
-0.106983
0.00359647
-0.118899
0.00382412
-0.131927
0.00404295
-0.146155
0.00425449
-0.16168
0.00445695
-0.178603
0.00464481
-0.197025
0.00481243
-0.217055
0.00495331
-0.23879
0.00505484
-0.262316
0.00510196
-0.287716
0.00508177
-0.315037
0.00498068
-0.344277
0.00477549
-0.375378
0.00449475
-0.334681
0.00416051
-0.298459
0.00379873
-0.266211
0.0034308
-0.237491
0.00306728
-0.21191
0.0027144
-0.18912
0.00237681
-0.16881
0.00205807
-0.150704
0.00176091
-0.134554
0.00148725
-0.120139
0.00123828
-0.107262
0.00101451
-0.0957503
0.000815914
-0.0854497
0.000641924
-0.0762239
0.000491601
-0.0679526
0.000363683
-0.0605291
0.000256706
-0.0538588
0.000169036
-0.0478572
9.89458e-05
-0.0424489
4.46604e-05
-0.0375657
4.25792e-06
-0.0331458
-2.40232e-05
-0.0291327
-4.16365e-05
-0.0254736
-5.0216e-05
-0.0221169
-5.15178e-05
-0.0190114
-4.73615e-05
-0.016103
-3.8933e-05
-0.0133294
-2.73839e-05
-0.0106192
-1.55843e-05
-0.00789564
-6.51855e-06
-0.00516877
-1.48211e-06
-0.00272472
-0.000798015
1.34378e-05
-0.00126034
5.89549e-05
-0.0042956
0.000135965
-0.00793555
0.000234561
-0.0115363
0.0003492
-0.0149322
0.000477296
-0.0182927
0.000617126
-0.0217419
0.000767536
-0.0253716
0.000930062
-0.0292603
0.00110619
-0.0334818
0.00129545
-0.038099
0.00149759
-0.0431691
0.00171233
-0.0487498
0.00193865
-0.0549003
0.00217488
-0.0616805
0.00241883
-0.069152
0.00266777
-0.0773772
0.00291862
-0.0864203
0.00316796
-0.0963471
0.0034125
-0.107227
0.0036502
-0.119137
0.00388131
-0.132158
0.00410729
-0.146381
0.00432865
-0.161902
0.00454198
-0.178816
0.00474254
-0.197226
0.00492182
-0.217234
0.00507019
-0.238938
0.00517885
-0.262425
0.00523327
-0.287771
0.00521729
-0.315021
0.00511321
-0.344173
0.00489804
-0.375162
0.00460852
-0.334391
0.00427254
-0.298124
0.00391218
-0.26585
0.0035431
-0.237122
0.00317561
-0.211542
0.00281702
-0.188761
0.00247276
-0.168466
0.00214684
-0.150379
0.00184221
-0.134249
0.00156092
-0.119857
0.00130428
-0.107005
0.00107292
-0.095519
0.000866935
-0.0852437
0.000685872
-0.0760429
0.000528897
-0.0677956
0.000394838
-0.0603951
0.0002823
-0.0537463
0.00018971
-0.0477647
0.000115392
-0.0423746
5.75748e-05
-0.0375079
1.44183e-05
-0.0331026
-1.60304e-05
-0.0291022
-3.55128e-05
-0.0254541
-4.56137e-05
-0.0221068
-4.81348e-05
-0.0190089
-4.49669e-05
-0.0161062
-3.73884e-05
-0.013337
-2.66353e-05
-0.0106299
-1.53307e-05
-0.00790694
-6.38844e-06
-0.00517772
-1.43737e-06
-0.00272967
-0.000799452
1.39426e-05
-0.00127432
6.12486e-05
-0.00434295
0.000141127
-0.00801547
0.000243092
-0.0116383
0.000361493
-0.0150506
0.000493761
-0.018425
0.000637976
-0.0218861
0.000792584
-0.0255262
0.000958843
-0.0294266
0.00113832
-0.0336613
0.00133108
-0.0382918
0.00153683
-0.0433748
0.00175483
-0.0489678
0.00198386
-0.0551293
0.00222223
-0.0619189
0.00246767
-0.0693974
0.00271741
-0.077627
0.00296847
-0.0866713
0.0032175
-0.0965961
0.00346218
-0.107472