/*--------------------------------*- C++ -*----------------------------------*\
| =========                 |                                                 |
| \\      /  F ield         | OpenFOAM: The Open Source CFD Toolbox           |
|  \\    /   O peration     | Version:  2412                                  |
|   \\  /    A nd           | Website:  www.openfoam.com                      |
|    \\/     M anipulation  |                                                 |
\*---------------------------------------------------------------------------*/
FoamFile
{
    version     2.0;
    format      ascii;
    arch        "LSB;label=32;scalar=64";
    class       volVectorField;
    location    "1714";
    object      U;
}
// * * * * * * * * * * * * * * * * * * * * * * * * * * * * * * * * * * * * * //

dimensions      [0 1 -1 0 0 0 0];

internalField   nonuniform List<vector> 
32240
(
(0.0279823 -7.14953e-07 0)
(0.0864347 -6.19101e-06 0)
(0.146462 -1.76378e-05 0)
(0.196599 -3.3182e-05 0)
(0.233677 -5.07148e-05 0)
(0.261696 -7.0083e-05 0)
(0.283726 -9.14656e-05 0)
(0.301716 -0.000115003 -7.17092e-28)
(0.316873 -0.000140838 -2.04576e-27)
(0.329942 -0.000169071 2.37799e-27)
(0.341403 -0.00019969 0)
(0.351618 -0.000232678 0)
(0.360864 -0.000268179 8.44939e-27)
(0.369322 -0.000306288 -8.04457e-27)
(0.377108 -0.000347188 0)
(0.384307 -0.000391122 0)
(0.390972 -0.000438129 3.92774e-26)
(0.397128 -0.000488165 -3.86252e-26)
(0.40277 -0.000540896 0)
(0.407871 -0.000595793 0)
(0.412386 -0.000651996 0)
(0.41626 -0.0007083 0)
(0.419442 -0.000763231 -1.13828e-25)
(0.421898 -0.000815206 2.39539e-25)
(0.423617 -0.000862641 -1.24681e-25)
(0.424608 -0.000904027 -1.59952e-25)
(0.424894 -0.000937882 1.5378e-25)
(0.424499 -0.000962692 0)
(0.423439 -0.000976882 0)
(0.421718 -0.000978636 0)
(0.419318 -0.000965854 0)
(0.416189 -0.000935937 0)
(0.412233 -0.000885444 0)
(0.407745 -0.000818363 1.3142e-25)
(0.40321 -0.000746157 5.5219e-27)
(0.398655 -0.000672552 1.49962e-25)
(0.394091 -0.000599911 -2.95475e-25)
(0.38952 -0.000529738 0)
(0.384938 -0.000463312 0)
(0.380335 -0.000401339 0)
(0.375699 -0.000344453 0)
(0.371009 -0.000292915 0)
(0.366244 -0.000246677 0)
(0.361375 -0.000205533 0)
(0.35637 -0.000169228 0)
(0.351195 -0.00013752 0)
(0.345807 -0.000110151 0)
(0.340161 -8.68681e-05 0)
(0.334202 -6.73423e-05 -4.96171e-25)
(0.327869 -5.12314e-05 5.25735e-25)
(0.32109 -3.81669e-05 2.80369e-25)
(0.313778 -2.78138e-05 -3.0093e-25)
(0.305825 -1.98536e-05 0)
(0.297096 -1.39562e-05 0)
(0.287417 -9.77069e-06 0)
(0.276558 -6.94726e-06 0)
(0.2642 -5.15328e-06 0)
(0.249853 -4.09023e-06 0)
(0.232747 -3.48701e-06 0)
(0.211798 -3.1189e-06 0)
(0.185509 -2.79425e-06 2.64258e-25)
(0.151699 -2.38046e-06 -3.35185e-25)
(0.109351 -1.69187e-06 0)
(0.0636335 -8.82966e-07 0)
(0.0206004 -2.39716e-07 0)
(0.0283964 8.29395e-08 -1.54898e-25)
(0.0876348 -4.44896e-06 2.33194e-25)
(0.148289 -1.60737e-05 0)
(0.198696 -3.37217e-05 0)
(0.235866 -5.51428e-05 -9.7265e-25)
(0.263924 -7.98633e-05 7.62742e-25)
(0.285971 -0.000107988 -6.23971e-25)
(0.303962 -0.000139522 5.27871e-25)
(0.319103 -0.000174449 0)
(0.332142 -0.000212691 0)
(0.343558 -0.000254056 0)
(0.353712 -0.000298446 -6.86977e-25)
(0.362888 -0.000345975 6.45369e-25)
(0.371277 -0.000396864 6.14293e-25)
(0.378996 -0.000451128 -5.9112e-25)
(0.386125 -0.000508979 1.14549e-24)
(0.392712 -0.000570111 -2.23799e-24)
(0.398774 -0.000634152 1.0988e-24)
(0.404309 -0.000700324 1.0752e-24)
(0.409286 -0.000767458 -1.05922e-24)
(0.413658 -0.00083397 0)
(0.417373 -0.000897917 0)
(0.420383 -0.0009572 9.59074e-25)
(0.422663 -0.00100984 -1.84265e-24)
(0.424209 -0.00105414 1.02346e-26)
(0.425034 -0.00108871 8.36401e-25)
(0.425166 -0.00111236 0)
(0.424629 -0.00112402 0)
(0.423442 -0.00112278 0)
(0.421605 -0.00110787 -3.38472e-25)
(0.419097 -0.00107845 4.34924e-27)
(0.415866 -0.00103338 3.19718e-25)
(0.411813 -0.000970611 0)
(0.407236 -0.000894319 3.08987e-25)
(0.402626 -0.00081446 -6.24233e-25)
(0.398008 -0.000733473 -3.13455e-25)
(0.393388 -0.00065323 2.19413e-27)
(0.388769 -0.000575196 1.30697e-24)
(0.384149 -0.000500573 -6.16478e-28)
(0.379522 -0.000430209 -6.81742e-25)
(0.374873 -0.000364694 6.99549e-25)
(0.37018 -0.000304455 -7.18859e-25)
(0.365418 -0.000249798 -7.43134e-25)
(0.36056 -0.000200866 7.67569e-25)
(0.355576 -0.000157635 7.98709e-25)
(0.35043 -0.000119971 -8.30107e-25)
(0.345082 -8.76553e-05 8.70373e-25)
(0.339485 -6.04203e-05 -1.82742e-24)
(0.333582 -3.79512e-05 9.64339e-25)
(0.327312 -1.98406e-05 0)
(0.320602 -5.68212e-06 0)
(0.313365 4.93787e-06 -5.89599e-25)
(0.30549 1.24307e-05 6.3851e-25)
(0.29684 1.71815e-05 6.99167e-25)
(0.287237 1.96382e-05 -7.7239e-25)
(0.276447 2.02704e-05 -8.65047e-25)
(0.264149 1.95332e-05 9.84126e-25)
(0.249849 1.77283e-05 5.72651e-25)
(0.232778 1.52082e-05 -6.83813e-25)
(0.211847 1.22073e-05 0)
(0.185561 9.05415e-06 5.27119e-25)
(0.151744 5.92572e-06 -6.6903e-25)
(0.109376 3.14405e-06 0)
(0.0636282 1.14515e-06 0)
(0.0205888 1.77764e-07 0)
(0.0285085 -3.04781e-07 0)
(0.0880468 -4.89448e-06 0)
(0.149007 -1.57947e-05 -1.1564e-24)
(0.199584 -3.16213e-05 8.92568e-25)
(0.236851 -5.03928e-05 0)
(0.264978 -7.17895e-05 0)
(0.287067 -9.59668e-05 0)
(0.305077 -0.00012295 0)
(0.320218 -0.000152706 1.2751e-24)
(0.333239 -0.0001851 -1.13347e-24)
(0.344625 -0.000219941 1.02936e-24)
(0.354749 -0.000257437 -9.51131e-25)
(0.3639 -0.000297811 8.96559e-25)
(0.372268 -0.000341586 -8.54228e-25)
(0.379963 -0.000388823 0)
(0.387063 -0.000439498 0)
(0.393613 -0.000493581 1.57229e-24)
(0.399629 -0.000550649 -1.54488e-24)
(0.405108 -0.000610265 1.52669e-24)
(0.410016 -0.000671485 -3.00714e-24)
(0.414306 -0.000732972 2.95444e-24)
(0.417929 -0.000793099 -1.44265e-24)
(0.420843 -0.000850133 0)
(0.423028 -0.000902417 0)
(0.424483 -0.000948467 0)
(0.425224 -0.000986926 1.26258e-24)
(0.425278 -0.00101645 -1.21306e-24)
(0.42467 -0.00103568 0)
(0.423418 -0.00104327 -1.13626e-24)
(0.421523 -0.00103805 5.48878e-25)
(0.418966 -0.00101864 -1.99004e-27)
(0.415688 -0.0009828 2.64182e-25)
(0.411584 -0.000927079 -1.31749e-27)
(0.406961 -0.000854856 -2.70271e-25)
(0.402312 -0.000777366 1.09349e-24)
(0.397661 -0.000698281 -5.57733e-25)
(0.393016 -0.000620147 0)
(0.38838 -0.000544799 0)
(0.383747 -0.000473327 -1.21022e-24)
(0.379109 -0.000406486 1.23973e-24)
(0.374452 -0.000344702 1.28022e-24)
(0.369756 -0.000288268 3.82709e-27)
(0.365 -0.000237403 -1.35876e-24)
(0.360155 -0.000192184 0)
(0.35519 -0.00015252 -1.46391e-24)
(0.350067 -0.000118166 -2.90163e-27)
(0.344745 -8.87996e-05 1.59171e-24)
(0.339178 -6.40538e-05 0)
(0.333311 -4.35901e-05 0)
(0.32708 -2.70244e-05 -1.87623e-24)
(0.320409 -1.39413e-05 4.005e-24)
(0.313215 -3.97458e-06 -1.07521e-24)
(0.305387 3.30923e-06 6.23339e-28)
(0.296785 8.25493e-06 -2.55207e-24)
(0.28723 1.12292e-05 -4.10413e-28)
(0.276486 1.26135e-05 1.57983e-24)
(0.26423 1.27863e-05 0)
(0.249976 1.19442e-05 1.04637e-24)
(0.232954 1.03966e-05 -1.24999e-24)
(0.212061 8.30195e-06 0)
(0.185797 5.97088e-06 -9.64859e-25)
(0.151983 3.65338e-06 1.22503e-24)
(0.109588 1.6782e-06 7.27092e-25)
(0.0637764 4.37743e-07 -1.1297e-24)
(0.0206457 -3.6079e-08 2.42625e-25)
(0.028785 -1.73938e-07 0)
(0.0888644 -5.18414e-06 0)
(0.150265 -1.71745e-05 -1.6853e-24)
(0.201034 -3.46556e-05 1.29762e-24)
(0.238368 -5.53523e-05 0)
(0.266525 -7.88889e-05 -1.53661e-24)
(0.288625 -0.000105379 2.50888e-24)
(0.306631 -0.000134854 -1.0605e-24)
(0.321755 -0.000167301 0)
(0.334743 -0.000202584 0)
(0.346085 -0.000240471 0)
(0.356171 -0.000281285 -1.37644e-24)
(0.365293 -0.000325325 -1.03839e-27)
(0.373627 -0.000372936 1.23512e-24)
(0.381285 -0.000424189 2.38192e-24)
(0.388336 -0.000478804 -2.31246e-24)
(0.394828 -0.00053664 0)
(0.40078 -0.000597325 0)
(0.406183 -0.000660239 0)
(0.411 -0.00072429 0)
(0.415187 -0.000788007 0)
(0.418695 -0.00084968 0)
(0.421489 -0.00090754 -1.99098e-24)
(0.423553 -0.000959918 1.9196e-24)
(0.424889 -0.00100532 0)
(0.425518 -0.00104235 1.77247e-24)
(0.425467 -0.00106968 -1.70241e-24)
(0.424762 -0.00108597 0)
(0.423423 -0.0010901 -1.58316e-24)
(0.421451 -0.00108132 -1.32964e-27)
(0.418821 -0.00105878 1.49835e-24)
(0.415472 -0.00102054 0)
(0.411297 -0.000962958 0)
(0.406609 -0.00088924 0)
(0.401905 -0.000810471 1.50852e-24)
(0.397208 -0.000730043 4.17149e-27)
(0.392525 -0.000650294 -1.57321e-24)
(0.387856 -0.000572861 1.61727e-24)
(0.383197 -0.000498969 3.57067e-27)
(0.378541 -0.000429509 -3.40615e-24)
(0.373873 -0.000365132 1.74954e-24)
(0.369174 -0.000306257 0)
(0.364422 -0.000253078 0)
(0.359587 -0.000205618 0)
(0.354637 -0.000163769 -1.99742e-24)
(0.349536 -0.000127333 -2.33931e-27)
(0.344242 -9.6045e-05 2.1704e-24)
(0.338709 -6.95925e-05 0)
(0.332881 -4.76307e-05 0)
(0.326694 -2.98187e-05 -2.55475e-24)
(0.320072 -1.57246e-05 2.72731e-24)
(0.312928 -4.9745e-06 1.46727e-24)
(0.305152 2.87529e-06 -3.18133e-24)
(0.296602 8.22988e-06 1.74114e-24)
(0.287098 1.14791e-05 0)
(0.276403 1.30164e-05 2.16011e-24)
(0.264191 1.32383e-05 -2.46066e-24)
(0.249976 1.23879e-05 1.4327e-24)
(0.232991 1.08053e-05 -1.71277e-24)
(0.212125 8.68042e-06 0)
(0.185878 6.30677e-06 0)
(0.152069 3.95561e-06 0)
(0.109654 1.92774e-06 -9.99338e-25)
(0.0638068 6.05495e-07 1.55388e-24)
(0.0206508 5.2012e-08 -3.33845e-25)
(0.0289996 -2.24694e-07 0)
(0.0895303 -5.25598e-06 1.21668e-24)
(0.151322 -1.72867e-05 -1.07715e-24)
(0.202278 -3.47801e-05 0)
(0.239695 -5.5493e-05 0)
(0.267902 -7.90667e-05 0)
(0.290027 -0.000105617 0)
(0.308041 -0.000135163 -2.70503e-24)
(0.323155 -0.000167685 2.34943e-24)
(0.336117 -0.000203072 0)
(0.34742 -0.000241171 -1.89325e-24)
(0.357474 -0.000282245 1.75315e-24)
(0.366574 -0.000326656 3.30631e-24)
(0.374882 -0.000374569 2.35415e-27)
(0.382498 -0.000425971 2.28314e-27)
(0.389501 -0.000480889 -2.9468e-24)
(0.395941 -0.000539088 2.88618e-24)
(0.401833 -0.000600207 -2.83367e-24)
(0.407161 -0.000663483 2.78946e-24)
(0.41189 -0.000727764 -2.73732e-24)
(0.415977 -0.000791581 0)
(0.419376 -0.000853273 0)
(0.422058 -0.00091117 0)
(0.424009 -0.000963727 2.43526e-24)
(0.425238 -0.00100955 -2.33933e-24)
(0.425766 -0.00104731 0)
(0.42562 -0.0010756 0)
(0.424827 -0.00109291 0)
(0.42341 -0.00109793 2.01294e-24)
(0.421372 -0.00109025 -1.9516e-24)
(0.418683 -0.00106922 0)
(0.415273 -0.00103277 0)
(0.411032 -0.000976301 -4.58096e-25)
(0.406281 -0.000902237 1.42313e-24)
(0.401526 -0.000822412 -2.89794e-24)
(0.396786 -0.000740545 1.97045e-24)
(0.392068 -0.00065913 2.02496e-24)
(0.387371 -0.000579978 -2.07232e-24)
(0.382691 -0.00050441 0)
(0.37802 -0.000433383 2.19342e-24)
(0.373344 -0.000367555 -4.50933e-24)
(0.368644 -0.000307347 4.64669e-24)
(0.363896 -0.000252982 -2.39675e-24)
(0.359073 -0.000204513 0)
(0.354141 -0.000161847 0)
(0.349063 -0.000124773 0)
(0.343799 -9.30018e-05 2.80548e-24)
(0.3383 -6.61934e-05 -2.94352e-24)
(0.332511 -4.39876e-05 0)
(0.326368 -2.60134e-05 -3.30135e-24)
(0.319794 -1.18917e-05 3.52545e-24)
(0.3127 -1.19342e-06 0)
(0.304977 6.4852e-06 -2.0574e-24)
(0.296481 1.15911e-05 -5.01208e-28)
(0.287031 1.45263e-05 2.49367e-24)
(0.276387 1.57019e-05 2.79703e-24)
(0.264221 1.55311e-05 -3.18773e-24)
(0.250053 1.42408e-05 0)
(0.233111 1.22003e-05 2.22066e-24)
(0.212276 9.61565e-06 -2.72731e-24)
(0.186046 6.84986e-06 -3.43678e-24)
(0.152236 4.20772e-06 6.55323e-24)
(0.109794 1.99638e-06 -2.5971e-24)
(0.0638951 5.95722e-07 6.73435e-25)
(0.0206812 1.95753e-08 -4.34216e-25)
(0.0292464 -2.11029e-07 -5.01643e-25)
(0.0902832 -5.47574e-06 3.75625e-24)
(0.152501 -1.8086e-05 -2.6529e-24)
(0.203648 -3.64048e-05 0)
(0.241141 -5.80498e-05 0)
(0.269385 -8.26454e-05 0)
(0.291525 -0.000110273 3.92354e-24)
(0.309539 -0.000140931 -3.313e-24)
(0.324637 -0.0001746 0)
(0.33757 -0.000211231 0)
(0.348839 -0.000250847 0)
(0.35886 -0.000293664 0)
(0.367924 -0.0003399 0)
(0.376194 -0.000389669 0)
(0.38377 -0.000442877 3.71502e-24)
(0.390727 -0.000499627 2.29242e-27)
(0.397112 -0.000559806 -7.05722e-24)
(0.402936 -0.000622833 3.46247e-24)
(0.408183 -0.00068783 0)
(0.412819 -0.000753582 0)
(0.416799 -0.000818594 0)
(0.420085 -0.000881224 0)
(0.422651 -0.000939862 0)
(0.424488 -0.000993042 0)
(0.425608 -0.00103945 0)
(0.426032 -0.00107778 0)
(0.425788 -0.00110659 0)
(0.424904 -0.00112417 0)
(0.423404 -0.00112908 0)
(0.421298 -0.0011213 0)
(0.41855 -0.00110033 -1.15457e-24)
(0.415075 -0.00106396 5.66749e-25)
(0.410761 -0.00100727 5.52286e-25)
(0.405945 -0.000931974 1.1485e-24)
(0.401135 -0.000850638 -1.16595e-24)
(0.39635 -0.000767105 0)
(0.391593 -0.000683816 -2.45028e-24)
(0.386864 -0.000602569 2.50961e-24)
(0.382159 -0.000524746 -2.58434e-24)
(0.377469 -0.000451389 2.65223e-24)
(0.372782 -0.000383248 0)
(0.368078 -0.000320816 0)
(0.363334 -0.000264366 0)
(0.358521 -0.000213976 -3.00916e-24)
(0.353606 -0.000169571 6.24162e-24)
(0.348552 -0.00013095 -3.24795e-24)
(0.343317 -9.78283e-05 0)
(0.337852 -6.98618e-05 0)
(0.332104 -4.6678e-05 0)
(0.326007 -2.78936e-05 -3.99814e-24)
(0.319484 -1.30969e-05 4.27104e-24)
(0.312445 -1.81035e-06 0)
(0.304778 6.35513e-06 0)
(0.296339 1.18588e-05 0)
(0.286945 1.5062e-05 0)
(0.276354 1.63771e-05 0)
(0.264237 1.62386e-05 3.88546e-24)
(0.250115 1.4887e-05 -4.52877e-24)
(0.233219 1.27269e-05 2.71087e-24)
(0.212414 9.98782e-06 -2.9795e-29)
(0.186196 7.08583e-06 -4.20295e-24)
(0.152382 4.33773e-06 0)
(0.109912 2.06311e-06 1.59029e-24)
(0.0639647 6.2444e-07 -8.25327e-25)
(0.0207029 3.31339e-08 -5.3237e-25)
(0.0294858 -2.29903e-07 0)
(0.0910176 -5.74655e-06 -3.57367e-24)
(0.153656 -1.89234e-05 3.14685e-24)
(0.204998 -3.79765e-05 -4.81858e-24)
(0.242573 -6.0393e-05 3.62888e-24)
(0.270859 -8.57897e-05 2.84437e-24)
(0.293018 -0.000114245 -2.31957e-24)
(0.311031 -0.000145761 0)
(0.326114 -0.000180273 0)
(0.339021 -0.000217683 0)
(0.350266 -0.000258133 -2.7363e-24)
(0.360261 -0.000301977 2.53346e-24)
(0.369289 -0.000349579 0)
(0.377515 -0.000400965 0)
(0.385049 -0.000456051 0)
(0.391958 -0.000514574 0)
(0.398285 -0.000576378 0)
(0.404039 -0.000640881 0)
(0.409202 -0.00070716 0)
(0.41374 -0.000773968 0)
(0.417613 -0.000839814 0)
(0.420785 -0.00090311 0)
(0.423235 -0.000962326 0)
(0.424961 -0.00101609 0)
(0.425973 -0.00106319 0)
(0.426296 -0.0011024 0)
(0.425956 -0.00113229 0)
(0.42498 -0.00115107 0)
(0.423397 -0.00115725 0)
(0.421225 -0.00115072 0)
(0.418422 -0.00113056 0)
(0.414882 -0.00109368 0)
(0.410491 -0.0010363 0)
(0.405608 -0.000959672 0)
(0.400744 -0.00087676 0)
(0.395912 -0.000791463 -2.80101e-24)
(0.391115 -0.000706131 2.86511e-24)
(0.386353 -0.000622578 -2.94944e-24)
(0.381622 -0.000542296 3.02627e-24)
(0.376914 -0.000466452 3.11954e-24)
(0.372216 -0.000395899 -6.41959e-24)
(0.367509 -0.000331201 -4.62176e-27)
(0.362769 -0.000272669 -4.25068e-27)
(0.357967 -0.000220402 7.07913e-24)
(0.35307 -0.000174333 -3.67312e-24)
(0.34804 -0.000134258 -3.82983e-24)
(0.342835 -9.98852e-05 4.00201e-24)
(0.337407 -7.08574e-05 0)
(0.3317 -4.67847e-05 0)
(0.325649 -2.72633e-05 0)
(0.319175 -1.18794e-05 0)
(0.312186 -1.39947e-07 0)
(0.304572 8.33515e-06 0)
(0.296191 1.40143e-05 0)
(0.286856 1.72683e-05 0)
(0.276323 1.85002e-05 0)
(0.264258 1.81481e-05 4.60013e-24)
(0.250187 1.65461e-05 -5.36349e-24)
(0.23334 1.40695e-05 0)
(0.212566 1.10291e-05 3.95292e-24)
(0.186359 7.81365e-06 -9.97621e-24)
(0.152535 4.76627e-06 6.34762e-24)
(0.110035 2.25648e-06 0)
(0.0640397 6.78394e-07 0)
(0.0207275 3.0337e-08 0)
(0.0297452 -2.37809e-07 0)
(0.091812 -5.98531e-06 0)
(0.154897 -1.96797e-05 0)
(0.206432 -3.94045e-05 0)
(0.244076 -6.25709e-05 4.19141e-24)
(0.272393 -8.88197e-05 7.63174e-28)
(0.294562 -0.000118266 -2.67615e-24)
(0.312569 -0.000150954 4.51795e-24)
(0.327628 -0.000186805 1.39725e-27)
(0.340495 -0.000225614 -3.47531e-24)
(0.351706 -0.000267509 0)
(0.361682 -0.000312776 0)
(0.370692 -0.000361936 0)
(0.378884 -0.000414964 5.2552e-24)
(0.386368 -0.000471827 -5.05847e-24)
(0.393221 -0.000532274 0)
(0.399483 -0.000595861 4.80342e-24)
(0.405159 -0.000661952 -4.7034e-24)
(0.410232 -0.000729607 0)
(0.414668 -0.000797577 4.5048e-24)
(0.41843 -0.00086438 -8.76685e-24)
(0.421486 -0.000928471 4.24529e-24)
(0.423821 -0.00098838 0)
(0.425435 -0.00104281 0)
(0.426342 -0.00109061 0)
(0.426566 -0.00113065 -3.62528e-24)
(0.426132 -0.00116169 3.47265e-24)
(0.425066 -0.00118221 3.33103e-24)
(0.423399 -0.00119093 -3.18723e-24)
(0.421157 -0.00118647 0)
(0.418297 -0.00116763 -1.51973e-24)
(0.414689 -0.0011292 1.51072e-24)
(0.410218 -0.00106942 0)
(0.405269 -0.000991166 0)
(0.400349 -0.000906902 0)
(0.395468 -0.000820092 -3.19996e-24)
(0.390629 -0.00073285 6.55705e-24)
(0.385831 -0.000646989 -6.73737e-24)
(0.381071 -0.000564132 6.9294e-24)
(0.376342 -0.000485607 -7.13189e-24)
(0.371631 -0.000412402 7.3463e-24)
(0.366919 -0.000345173 -3.78567e-24)
(0.362182 -0.000284287 0)
(0.357391 -0.000229875 0)
(0.352512 -0.000181877 0)
(0.347506 -0.000140089 -4.38494e-24)
(0.342331 -0.000104208 -3.15107e-27)
(0.336939 -7.38634e-05 9.63345e-24)
(0.331274 -4.86453e-05 2.5536e-27)
(0.325271 -2.81319e-05 -5.40453e-24)
(0.318851 -1.19271e-05 0)
(0.31192 4.08918e-07 6.23465e-24)
(0.304365 9.30329e-06 -1.35483e-23)
(0.296047 1.52e-05 7.43231e-24)
(0.286775 1.8558e-05 0)
(0.276304 1.97993e-05 0)
(0.264296 1.93584e-05 -5.30209e-24)
(0.250277 1.7674e-05 6.18827e-24)
(0.233475 1.5036e-05 -3.70998e-24)
(0.212739 1.18486e-05 4.56976e-24)
(0.186547 8.42397e-06 0)
(0.152715 5.13263e-06 0)
(0.110181 2.42708e-06 0)
(0.0641272 7.33062e-07 0)
(0.0207558 3.5149e-08 0)
(0.0299993 -2.3992e-07 -1.58992e-24)
(0.0925912 -6.07268e-06 2.36958e-24)
(0.156116 -1.99678e-05 0)
(0.207849 -3.99787e-05 0)
(0.245573 -6.35641e-05 0)
(0.273936 -9.04228e-05 0)
(0.296127 -0.000120721 0)
(0.31414 -0.000154526 0)
(0.329186 -0.000191791 4.43806e-24)
(0.342021 -0.000232306 -3.93631e-24)
(0.353197 -0.00027615 0)
(0.363139 -0.000323427 -6.64231e-24)
(0.372111 -0.000374424 6.25721e-24)
(0.380266 -0.000429128 0)
(0.387706 -0.000487487 5.74268e-24)
(0.394501 -0.000549432 -5.5708e-24)
(0.400693 -0.000614557 0)
(0.406288 -0.000682122 0)
(0.411268 -0.000751128 0)
(0.4156 -0.000820289 0)
(0.419249 -0.000888124 0)
(0.422189 -0.000953115 0)
(0.424408 -0.00101384 0)
(0.425911 -0.00106906 0)
(0.426714 -0.00111767 0)
(0.426841 -0.00115864 0)
(0.426317 -0.00119091 0)
(0.425167 -0.00121342 3.72143e-24)
(0.423423 -0.00122552 -3.55775e-24)
(0.421104 -0.00122374 0)
(0.418167 -0.00120648 -1.69235e-24)
(0.414486 -0.00116709 1.68671e-24)
(0.40994 -0.00110408 0)
(0.404926 -0.00102377 0)
(0.399952 -0.000938215 0)
(0.395022 -0.00085001 0)
(0.390137 -0.000760822 0)
(0.3853 -0.000672474 0)
(0.380509 -0.000586811 0)
(0.375757 -0.000505381 0)
(0.371033 -0.000429329 0)
(0.366316 -0.000359411 0)
(0.361583 -0.000296049 -4.4072e-24)
(0.356802 -0.000239397 -4.46474e-27)
(0.351941 -0.000189401 4.73851e-24)
(0.34696 -0.000145854 0)
(0.341817 -0.000108442 0)
(0.336461 -7.67825e-05 0)
(0.330838 -5.04543e-05 0)
(0.324882 -2.9019e-05 0)
(0.318514 -1.20328e-05 0)
(0.311641 9.45839e-07 0)
(0.304148 1.0363e-05 0)
(0.295891 1.66588e-05 0)
(0.286683 2.02833e-05 0)
(0.276274 2.16841e-05 0)
(0.264326 2.13119e-05 0)
(0.250358 1.96344e-05 0)
(0.233603 1.69017e-05 0)
(0.212908 1.35255e-05 0)
(0.186734 9.77069e-06 0)
(0.152894 6.04591e-06 0)
(0.110325 2.88865e-06 4.98719e-24)
(0.064215 8.77361e-07 -5.18601e-24)
(0.0207844 4.33403e-08 0)
(0.0302595 -2.38019e-07 0)
(0.093389 -6.17747e-06 0)
(0.157362 -2.03473e-05 0)
(0.209293 -4.07779e-05 7.07271e-24)
(0.247101 -6.4941e-05 8.51029e-28)
(0.275513 -9.25974e-05 -4.15937e-24)
(0.297732 -0.000123921 0)
(0.315753 -0.000158921 0)
(0.330788 -0.000197448 0)
(0.343596 -0.000239261 0)
(0.35474 -0.000284675 0)
(0.364645 -0.000333697 0)
(0.373573 -0.000386738 0)
(0.381678 -0.000443378 0)
(0.389063 -0.000503607 0)
(0.395796 -0.000567213 0)
(0.401917 -0.000633996 0)
(0.407428 -0.000703176 0)
(0.412311 -0.000773667 0)
(0.416535 -0.000844132 0)
(0.42007 -0.000913105 0)
(0.422892 -0.000979112 0)
(0.424996 -0.00104079 0)
(0.426389 -0.00109693 0)
(0.427089 -0.00114642 -9.3478e-24)
(0.427121 -0.00118833 4.4677e-24)
(0.426509 -0.00122193 -4.26172e-27)
(0.425279 -0.00124678 4.0773e-24)
(0.423462 -0.00126207 -3.89597e-24)
(0.421067 -0.0012634 3.7604e-24)
(0.418042 -0.00124777 0)
(0.414277 -0.00120811 0)
(0.409656 -0.00114222 0)
(0.404581 -0.00105951 0)
(0.399555 -0.000972594 3.87597e-24)
(0.394572 -0.000883044 -3.95979e-24)
(0.389638 -0.000791817 0)
(0.384757 -0.000700721 4.18906e-24)
(0.379932 -0.000611959 -4.30436e-24)
(0.375156 -0.000527354 8.88186e-24)
(0.370416 -0.000448219 -9.14316e-24)
(0.365693 -0.000375401 0)
(0.360962 -0.000309367 -9.76757e-24)
(0.356192 -0.000250288 1.51699e-23)
(0.351349 -0.000198115 -5.25255e-24)
(0.346394 -0.000152635 0)
(0.341282 -0.000113526 0)
(0.335965 -8.03959e-05 0)
(0.330385 -5.28141e-05 0)
(0.324479 -3.03348e-05 0)
(0.318166 -1.2499e-05 0)
(0.311351 1.17493e-06 0)
(0.30392 1.11247e-05 0)
(0.29573 1.78236e-05 4.67911e-24)
(0.286589 2.17153e-05 -5.20179e-24)
(0.276246 2.32585e-05 0)
(0.26436 2.29235e-05 6.71436e-24)
(0.250448 2.11929e-05 -7.8511e-24)
(0.233748 1.8334e-05 0)
(0.213105 1.47609e-05 0)
(0.186965 1.07378e-05 0)
(0.153131 6.70439e-06 0)
(0.110523 3.21685e-06 0)
(0.0643359 9.72105e-07 2.91497e-24)
(0.0208237 4.70798e-08 -1.88375e-24)
(0.0305179 -2.44864e-07 1.99362e-24)
(0.0941812 -6.43505e-06 -2.96134e-24)
(0.1586 -2.11939e-05 0)
(0.210738 -4.24544e-05 7.82634e-24)
(0.248643 -6.76108e-05 -1.17563e-23)
(0.277117 -9.64598e-05 -9.4574e-28)
(0.29937 -0.000129144 3.74918e-24)
(0.3174 -0.00016561 0)
(0.332415 -0.000205558 5.46709e-24)
(0.345185 -0.00024856 -4.8477e-24)
(0.356306 -0.000295116 0)
(0.366188 -0.000345376 0)
(0.37507 -0.000399824 0)
(0.383119 -0.000458281 0)
(0.390444 -0.000520578 7.05721e-24)
(0.397114 -0.000586274 -6.84396e-24)
(0.40316 -0.000654947 6.67216e-24)
(0.408583 -0.000725809 2.60371e-27)
(0.413365 -0.000797773 2.56292e-27)
(0.417479 -0.000869526 -6.17495e-24)
(0.420896 -0.000939652 0)
(0.423601 -0.00100674 0)
(0.425588 -0.00106949 0)
(0.42687 -0.0011267 0)
(0.427467 -0.00117721 1.01968e-23)
(0.427405 -0.00122006 -1.94995e-23)
(0.426712 -0.00125483 4.65205e-24)
(0.425411 -0.0012816 8.88965e-24)
(0.423524 -0.00129891 -4.25161e-24)
(0.421042 -0.00130399 0)
(0.417917 -0.00128987 0)
(0.414061 -0.00125163 0)
(0.409365 -0.00118415 0)
(0.404234 -0.00109891 0)
(0.399156 -0.00101026 4.22883e-24)
(0.394119 -0.000919096 -4.32478e-24)
(0.38913 -0.000825581 0)
(0.384203 -0.000731343 4.58077e-24)
(0.379341 -0.000639151 -4.70935e-24)
(0.374539 -0.000551155 0)
(0.369783 -0.000468806 0)
(0.365054 -0.000393008 0)
(0.360325 -0.000324246 0)
(0.355566 -0.000262696 0)
(0.350742 -0.000208304 -5.76804e-24)
(0.345811 -0.000160852 6.01142e-24)
(0.340732 -0.000120002 0)
(0.335452 -8.53435e-05 0)
(0.329917 -5.64217e-05 0)
(0.324061 -3.2771e-05 -7.45402e-24)
(0.317803 -1.39341e-05 7.98349e-24)
(0.311048 5.30588e-07 0)
(0.303681 1.1097e-05 0)
(0.295558 1.82209e-05 -5.16112e-24)
(0.286485 2.24014e-05 5.74225e-24)
(0.27621 2.41098e-05 -6.47802e-24)
(0.264388 2.38225e-05 7.4259e-24)
(0.250533 2.20338e-05 0)
(0.233887 1.90237e-05 5.22031e-24)
(0.213292 1.5252e-05 -8.40773e-30)
(0.187179 1.10265e-05 -8.1627e-24)
(0.153345 6.83883e-06 -5.21007e-24)
(0.110698 3.26563e-06 6.22307e-24)
(0.0644423 9.84644e-07 0)
(0.0208582 4.72141e-08 3.04927e-35)
(0.0307938 -2.51978e-07 0)
(0.0950271 -6.72298e-06 0)
(0.159917 -2.21475e-05 -5.65846e-24)
(0.212264 -4.43413e-05 4.28441e-24)
(0.250262 -7.06073e-05 0)
(0.278793 -0.000100719 -5.03427e-24)
(0.301075 -0.000134751 -4.10011e-24)
(0.319104 -0.000172611 6.89724e-24)
(0.334089 -0.000214068 0)
(0.346807 -0.000258866 -5.28654e-24)
(0.357881 -0.000307129 4.81261e-24)
(0.367734 -0.000359392 -8.94189e-24)
(0.376589 -0.00041555 1.68273e-23)
(0.384594 -0.000475712 -1.60185e-23)
(0.391859 -0.000539707 7.70087e-24)
(0.398458 -0.000607182 0)
(0.40442 -0.00067752 7.26459e-24)
(0.409748 -0.000749906 2.64548e-27)
(0.414425 -0.000823265 -6.89162e-24)
(0.418426 -0.000896305 0)
(0.421726 -0.000967642 0)
(0.424312 -0.00103592 0)
(0.426184 -0.00109989 0)
(0.427356 -0.00115838 0)
(0.42785 -0.00121022 1.09909e-23)
(0.427693 -0.00125432 -1.04927e-23)
(0.426918 -0.00129023 0)
(0.42555 -0.00131801 0)
(0.423594 -0.0013369 0)
(0.421034 -0.00134443 -4.47409e-24)
(0.417812 -0.0013333 6.59772e-24)
(0.41385 -0.00129746 -1.09184e-24)
(0.409071 -0.00123085 -2.14663e-24)
(0.403882 -0.00114343 -1.12142e-24)
(0.398755 -0.00105208 2.27988e-24)
(0.39366 -0.000958072 0)
(0.388611 -0.000861674 0)
(0.383633 -0.000763812 -4.96783e-24)
(0.378732 -0.000667852 5.10865e-24)
(0.373902 -0.000576281 0)
(0.36913 -0.000490623 0)
(0.364394 -0.000411781 0)
(0.359668 -0.000340227 0)
(0.354919 -0.000276131 0)
(0.350113 -0.000219437 6.25951e-24)
(0.345208 -0.000169929 -6.52478e-24)
(0.340161 -0.00012727 0)
(0.33492 -9.10416e-05 0)
(0.329429 -6.07741e-05 0)
(0.323623 -3.59798e-05 -8.09697e-24)
(0.317422 -1.61788e-05 -2.70056e-27)
(0.31073 -8.95661e-07 1.87402e-23)
(0.303431 1.03724e-05 2.01971e-27)
(0.295378 1.80814e-05 -5.61949e-24)
(0.286377 2.27276e-05 6.77376e-28)
(0.276173 2.47577e-05 5.10796e-28)
(0.264421 2.46494e-05 -8.11844e-24)
(0.250629 2.29158e-05 0)
(0.234043 1.98164e-05 0)
(0.213505 1.58703e-05 0)
(0.187423 1.14206e-05 8.96395e-24)
(0.153588 7.01972e-06 -1.14566e-23)
(0.110898 3.32823e-06 0)
(0.0645629 1.00089e-06 0)
(0.0208972 4.70552e-08 0)
(0.0310707 -2.59409e-07 0)
(0.0958751 -7.01935e-06 0)
(0.161239 -2.31338e-05 0)
(0.213804 -4.64208e-05 9.3191e-24)
(0.251907 -7.39502e-05 -6.99192e-24)
(0.2805 -0.0001055 0)
(0.302809 -0.00014095 0)
(0.320836 -0.000180117 7.49186e-24)
(0.335799 -0.000222815 -6.47008e-24)
(0.348495 -0.000269213 5.73909e-24)
(0.359536 -0.000319316 -1.56643e-23)
(0.369339 -0.000373666 9.69123e-24)
(0.37814 -0.000431809 0)
(0.386086 -0.000493695 0)
(0.393287 -0.00055918 -8.34596e-24)
(0.399812 -0.000628158 1.61575e-23)
(0.40569 -0.000700028 -7.85206e-24)
(0.410923 -0.000773907 7.64512e-24)
(0.415494 -0.000848658 -7.42979e-24)
(0.41938 -0.000922981 -7.20516e-24)
(0.422562 -0.00099552 6.95677e-24)
(0.42503 -0.00106497 0)
(0.426788 -0.00113014 0)
(0.42785 -0.00118993 0)
(0.428241 -0.00124328 0)
(0.427988 -0.00128915 0)
(0.42713 -0.00132698 0)
(0.425693 -0.00135624 0)
(0.423676 -0.00137643 0)
(0.421039 -0.00138523 -4.81346e-24)
(0.417718 -0.00137716 4.72998e-24)
(0.413649 -0.00134444 0)
(0.408776 -0.00128147 1.14724e-24)
(0.403523 -0.00119319 1.19564e-24)
(0.398347 -0.00109789 -2.43587e-24)
(0.39319 -0.000998395 0)
(0.388077 -0.000897648 0)
(0.383046 -0.000795771 0)
(0.378106 -0.000695993 0)
(0.373249 -0.000600915 0)
(0.36846 -0.000512056 -1.17057e-23)
(0.363717 -0.000430266 2.41673e-23)
(0.358993 -0.000355987 -1.24962e-23)
(0.354255 -0.000289374 0)
(0.349467 -0.000230374 0)
(0.344588 -0.000178774 0)
(0.339574 -0.00013425 7.37337e-24)
(0.334373 -9.63888e-05 3.89875e-27)
(0.328928 -6.47238e-05 -1.64236e-23)
(0.323173 -3.87525e-05 1.74877e-23)
(0.317028 -1.79619e-05 -1.87528e-23)
(0.310397 -1.83922e-06 -2.38992e-27)
(0.303163 1.01757e-05 1.1052e-23)
(0.295179 1.85246e-05 0)
(0.28625 2.37152e-05 0)
(0.27612 2.61646e-05 -7.67717e-24)
(0.264439 2.63422e-05 8.82322e-24)
(0.250713 2.47725e-05 -1.03495e-23)
(0.234191 2.16772e-05 1.86808e-23)
(0.213712 1.75802e-05 -7.70402e-24)
(0.187658 1.27951e-05 0)
(0.153815 7.93613e-06 6.25487e-24)
(0.111081 3.78229e-06 -7.48444e-24)
(0.0646739 1.14014e-06 -3.90405e-24)
(0.0209332 5.43406e-08 2.52675e-24)
(0.0313659 -2.68034e-07 0)
(0.0967784 -7.36097e-06 0)
(0.162641 -2.42553e-05 0)
(0.215443 -4.88075e-05 0)
(0.253648 -7.77406e-05 0)
(0.282287 -0.000110912 0)
(0.304605 -0.000147989 0)
(0.322611 -0.000188647 0)
(0.337534 -0.000232542 0)
(0.350198 -0.000279972 0)
(0.36121 -0.000331261 0)
(0.370972 -0.000386899 0)
(0.379715 -0.000446764 9.79535e-24)
(0.387599 -0.000510526 -1.86452e-23)
(0.394734 -0.000577982 -3.03539e-27)
(0.401183 -0.000648843 -2.91396e-27)
(0.406974 -0.00072245 8.41646e-24)
(0.412107 -0.000797871 8.18273e-24)
(0.416567 -0.00087396 -7.93968e-24)
(0.420337 -0.000949456 0)
(0.423399 -0.00102307 0)
(0.425749 -0.00109355 0)
(0.427393 -0.00115973 0)
(0.428349 -0.00122056 0)
(0.42864 -0.00127529 0)
(0.428294 -0.00132352 -1.1799e-23)
(0.427351 -0.00136429 1.116e-23)
(0.425842 -0.00139619 0)
(0.423756 -0.00141781 0)
(0.42105 -0.00142783 0)
(0.417646 -0.00142041 0)
(0.413469 -0.00139135 0)
(0.408491 -0.00133264 0)
(0.403157 -0.00124535 0)
(0.397921 -0.00114568 -5.15843e-24)
(0.392704 -0.00103912 5.3368e-24)
(0.387525 -0.000931996 0)
(0.382443 -0.0008259 0)
(0.377464 -0.000722737 -1.17591e-23)
(0.37258 -0.000624593 1.21078e-23)
(0.367774 -0.000532849 0)
(0.363024 -0.000448314 0)
(0.3583 -0.000371422 0)
(0.353572 -0.000302342 0)
(0.348801 -0.000241035 0)
(0.343948 -0.000187303 0)
(0.338966 -0.000140834 0)
(0.333805 -0.000101228 0)
(0.328406 -6.80283e-05 0)
(0.322703 -4.07413e-05 0)
(0.316617 -1.88511e-05 0)
(0.31005 -1.84242e-06 0)
(0.302883 1.08591e-05 1.18561e-23)
(0.294968 1.97277e-05 -1.30711e-23)
(0.286114 2.52824e-05 0)
(0.27606 2.79841e-05 0)
(0.264454 2.83128e-05 0)
(0.250799 2.67964e-05 0)
(0.23435 2.36491e-05 0)
(0.213946 1.93797e-05 -8.32031e-24)
(0.187944 1.42696e-05 2.11607e-23)
(0.154113 8.96525e-06 -1.35529e-23)
(0.111331 4.30566e-06 0)
(0.0648261 1.29468e-06 0)
(0.0209824 6.10721e-08 0)
(0.0316653 -2.81696e-07 0)
(0.0976946 -7.70536e-06 -8.34636e-24)
(0.164061 -2.53423e-05 7.18091e-24)
(0.217116 -5.0987e-05 0)
(0.255434 -8.11773e-05 0)
(0.284121 -0.000115845 -6.33052e-24)
(0.306446 -0.000154579 5.14291e-24)
(0.324423 -0.000196956 8.6351e-24)
(0.339291 -0.00024243 -7.45646e-24)
(0.351913 -0.00029137 -6.62524e-24)
(0.362904 -0.000344101 6.02599e-24)
(0.372631 -0.000401257 0)
(0.381322 -0.000462781 0)
(0.389145 -0.000528459 0)
(0.396209 -0.000597899 0)
(0.402576 -0.000670592 0)
(0.408272 -0.000745841 0)
(0.4133 -0.000822718 0)
(0.417647 -0.000900113 0)
(0.421298 -0.000976809 0)
(0.424241 -0.00105157 0)
(0.426472 -0.0011232 0)
(0.428003 -0.00119052 0)
(0.428852 -0.00125243 0)
(0.429048 -0.00130852 0)
(0.428621 -0.00135903 0)
(0.427599 -0.00140281 0)
(0.426008 -0.00143869 0)
(0.423841 -0.00146344 0)
(0.421062 -0.00147461 0)
(0.41758 -0.00146759 0)
(0.413309 -0.00144011 0)
(0.408228 -0.00138452 0)
(0.402786 -0.00129732 0)
(0.397464 -0.00119472 0)
(0.392183 -0.0010822 0)
(0.386952 -0.000968992 0)
(0.381826 -0.000858666 0)
(0.376811 -0.000752233 0)