# p  POINT_DATA 994
# x y z  p
76.848 3.84014e-15 1.88755 0.000130783
76.848 3.84014e-15 -1.88755 0.000130783
77.848 3.89022e-15 -1.88755 0.000130783
77.848 3.89022e-15 1.88755 0.000130783
75.8596 3.79065e-15 1.88755 0.000362311
75.8596 3.79065e-15 -1.88755 0.000362311
74.8826 3.74172e-15 1.88755 0.000608452
74.8826 3.74172e-15 -1.88755 0.000608452
73.9169 3.69337e-15 1.88755 0.000837709
73.9169 3.69337e-15 -1.88755 0.000837709
72.9624 3.64557e-15 1.88755 0.00107263
72.9624 3.64557e-15 -1.88755 0.00107263
72.019 3.59833e-15 1.88755 0.0013027
72.019 3.59833e-15 -1.88755 0.0013027
71.0865 3.55163e-15 1.88755 0.00153182
71.0865 3.55163e-15 -1.88755 0.00153182
70.1648 3.50547e-15 1.88755 0.00175929
70.1648 3.50547e-15 -1.88755 0.00175929
69.2537 3.45985e-15 1.88755 0.00198493
69.2537 3.45985e-15 -1.88755 0.00198493
68.3532 3.41476e-15 1.88755 0.00220958
68.3532 3.41476e-15 -1.88755 0.00220958
67.4632 3.37019e-15 1.88755 0.00243211
67.4632 3.37019e-15 -1.88755 0.00243211
66.5834 3.32613e-15 1.88755 0.00265374
66.5834 3.32613e-15 -1.88755 0.00265374
65.7138 3.28259e-15 1.88755 0.00287342
65.7138 3.28259e-15 -1.88755 0.00287342
64.8543 3.23955e-15 1.88755 0.00309232
64.8543 3.23955e-15 -1.88755 0.00309232
64.0048 3.19701e-15 1.88755 0.00330904
64.0048 3.19701e-15 -1.88755 0.00330904
63.1651 3.15496e-15 1.88755 0.00352523
63.1651 3.15496e-15 -1.88755 0.00352523
62.3351 3.11339e-15 1.88755 0.00373891
62.3351 3.11339e-15 -1.88755 0.00373891
61.5147 3.07231e-15 1.88755 0.00395255
61.5147 3.07231e-15 -1.88755 0.00395255
60.7038 3.03171e-15 1.88755 0.00416375
60.7038 3.03171e-15 -1.88755 0.00416375
59.9024 2.99157e-15 1.88755 0.0043742
59.9024 2.99157e-15 -1.88755 0.0043742
59.1102 2.9519e-15 1.88755 0.00458296
59.1102 2.9519e-15 -1.88755 0.00458296
58.3271 2.91269e-15 1.88755 0.00479076
58.3271 2.91269e-15 -1.88755 0.00479076
57.5532 2.87393e-15 1.88755 0.00499688
57.5532 2.87393e-15 -1.88755 0.00499688
56.7882 2.83562e-15 1.88755 0.00520183
56.7882 2.83562e-15 -1.88755 0.00520183
56.032 2.79776e-15 1.88755 0.00540537
56.032 2.79776e-15 -1.88755 0.00540537
55.2846 2.76033e-15 1.88755 0.00560787
55.2846 2.76033e-15 -1.88755 0.00560787
54.5459 2.72334e-15 1.88755 0.00580863
54.5459 2.72334e-15 -1.88755 0.00580863
53.8157 2.68678e-15 1.88755 0.00600825
53.8157 2.68678e-15 -1.88755 0.00600825
53.094 2.65063e-15 1.88755 0.00620643
53.094 2.65063e-15 -1.88755 0.00620643
52.3806 2.61491e-15 1.88755 0.00640359
52.3806 2.61491e-15 -1.88755 0.00640359
51.6755 2.5796e-15 1.88755 0.00659898
51.6755 2.5796e-15 -1.88755 0.00659898
50.9785 2.5447e-15 1.88755 0.00679322
50.9785 2.5447e-15 -1.88755 0.00679322
50.2897 2.51021e-15 1.88755 0.00698594
50.2897 2.51021e-15 -1.88755 0.00698594
49.6088 2.47611e-15 1.88755 0.00717764
49.6088 2.47611e-15 -1.88755 0.00717764
48.9358 2.44241e-15 1.88755 0.00736741
48.9358 2.44241e-15 -1.88755 0.00736741
48.2705 2.4091e-15 1.88755 0.00755599
48.2705 2.4091e-15 -1.88755 0.00755599
47.613 2.37617e-15 1.88755 0.0077429
47.613 2.37617e-15 -1.88755 0.0077429
46.9631 2.34362e-15 1.88755 0.00792872
46.9631 2.34362e-15 -1.88755 0.00792872
46.3207 2.31146e-15 1.88755 0.00811237
46.3207 2.31146e-15 -1.88755 0.00811237
45.6858 2.27966e-15 1.88755 0.00829472
45.6858 2.27966e-15 -1.88755 0.00829472
45.0582 2.24823e-15 1.88755 0.00847513
45.0582 2.24823e-15 -1.88755 0.00847513
44.4379 2.21717e-15 1.88755 0.00865427
44.4379 2.21717e-15 -1.88755 0.00865427
43.8248 2.18647e-15 1.88755 0.0088309
43.8248 2.18647e-15 -1.88755 0.0088309
43.2187 2.15612e-15 1.88755 0.00900597
43.2187 2.15612e-15 -1.88755 0.00900597
42.6197 2.12612e-15 1.88755 0.00917867
42.6197 2.12612e-15 -1.88755 0.00917867
42.0276 2.09647e-15 1.88755 0.00934981
42.0276 2.09647e-15 -1.88755 0.00934981
41.4424 2.06717e-15 1.88755 0.00951772
41.4424 2.06717e-15 -1.88755 0.00951772
40.8639 2.0382e-15 1.88755 0.00968364
40.8639 2.0382e-15 -1.88755 0.00968364
40.2922 2.00957e-15 1.88755 0.0098465
40.2922 2.00957e-15 -1.88755 0.0098465
39.727 1.98127e-15 1.88755 0.0100072
39.727 1.98127e-15 -1.88755 0.0100072
39.1685 1.9533e-15 1.88755 0.0101638
39.1685 1.9533e-15 -1.88755 0.0101638
38.6163 1.92565e-15 1.88755 0.0103177
38.6163 1.92565e-15 -1.88755 0.0103177
38.0706 1.89832e-15 1.88755 0.0104674
38.0706 1.89832e-15 -1.88755 0.0104674
37.5312 1.87131e-15 1.88755 0.0106139
37.5312 1.87131e-15 -1.88755 0.0106139
36.998 1.84461e-15 1.88755 0.010755
36.998 1.84461e-15 -1.88755 0.010755
36.4711 1.81822e-15 1.88755 0.0108925
36.4711 1.81822e-15 -1.88755 0.0108925
35.9502 1.79214e-15 1.88755 0.0110236
35.9502 1.79214e-15 -1.88755 0.0110236
35.4353 1.76636e-15 1.88755 0.0111498
35.4353 1.76636e-15 -1.88755 0.0111498
34.9264 1.74087e-15 1.88755 0.0112693
34.9264 1.74087e-15 -1.88755 0.0112693
34.4234 1.71568e-15 1.88755 0.0113825
34.4234 1.71568e-15 -1.88755 0.0113825
33.9204 1.6905e-15 1.88755 0.011488
33.9204 1.6905e-15 -1.88755 0.011488
33.4352 1.6662e-15 1.88755 0.011586
33.4352 1.6662e-15 -1.88755 0.011586
32.9672 1.64276e-15 1.88755 0.0116717
32.9672 1.64276e-15 -1.88755 0.0116717
32.5157 1.62016e-15 1.88755 0.0117474
32.5157 1.62016e-15 -1.88755 0.0117474
32.0803 1.59835e-15 1.88755 0.0118103
32.0803 1.59835e-15 -1.88755 0.0118103
31.6602 1.57731e-15 1.88755 0.0118627
31.6602 1.57731e-15 -1.88755 0.0118627
31.255 1.55702e-15 1.88755 0.0119025
31.255 1.55702e-15 -1.88755 0.0119025
30.8642 1.53745e-15 1.88755 0.0119315
30.8642 1.53745e-15 -1.88755 0.0119315
30.4871 1.51857e-15 1.88755 0.0119473
30.4871 1.51857e-15 -1.88755 0.0119473
30.1235 1.50036e-15 1.88755 0.0119523
30.1235 1.50036e-15 -1.88755 0.0119523
29.7727 1.48279e-15 1.88755 0.0119438
29.7727 1.48279e-15 -1.88755 0.0119438
29.4343 1.46585e-15 1.88755 0.011924
29.4343 1.46585e-15 -1.88755 0.011924
29.1079 1.4495e-15 1.88755 0.0118911
29.1079 1.4495e-15 -1.88755 0.0118911
28.793 1.43374e-15 1.88755 0.0118469
28.793 1.43374e-15 -1.88755 0.0118469
28.4893 1.41853e-15 1.88755 0.0117892
28.4893 1.41853e-15 -1.88755 0.0117892
28.1964 1.40386e-15 1.88755 0.0117203
28.1964 1.40386e-15 -1.88755 0.0117203
27.9138 1.38971e-15 1.88755 0.011638
27.9138 1.38971e-15 -1.88755 0.011638
27.6412 1.37606e-15 1.88755 0.0115446
27.6412 1.37606e-15 -1.88755 0.0115446
27.3783 1.36289e-15 1.88755 0.0114381
27.3783 1.36289e-15 -1.88755 0.0114381
27.1246 1.35019e-15 1.88755 0.0113206
27.1246 1.35019e-15 -1.88755 0.0113206
26.88 1.33794e-15 1.88755 0.0111907
26.88 1.33794e-15 -1.88755 0.0111907
26.644 1.32612e-15 1.88755 0.0110493
26.644 1.32612e-15 -1.88755 0.0110493
26.4164 1.31472e-15 1.88755 0.0108972
26.4164 1.31472e-15 -1.88755 0.0108972
26.1968 1.30373e-15 1.88755 0.0107337
26.1968 1.30373e-15 -1.88755 0.0107337
25.985 1.29312e-15 1.88755 0.01056
25.985 1.29312e-15 -1.88755 0.01056
25.7807 1.28289e-15 1.88755 0.010376
25.7807 1.28289e-15 -1.88755 0.010376
25.5836 1.27302e-15 1.88755 0.0101825
25.5836 1.27302e-15 -1.88755 0.0101825
25.3935 1.2635e-15 1.88755 0.00997928
25.3935 1.2635e-15 -1.88755 0.00997928
25.2101 1.25432e-15 1.88755 0.00976761
25.2101 1.25432e-15 -1.88755 0.00976761
25.0332 1.24546e-15 1.88755 0.00954762
25.0332 1.24546e-15 -1.88755 0.00954762
24.8626 1.23692e-15 1.88755 0.00931959
24.8626 1.23692e-15 -1.88755 0.00931959
24.698 1.22867e-15 1.88755 0.00908467
24.698 1.22867e-15 -1.88755 0.00908467
24.5393 1.22072e-15 1.88755 0.00884298
24.5393 1.22072e-15 -1.88755 0.00884298
24.3861 1.21306e-15 1.88755 0.00859533
24.3861 1.21306e-15 -1.88755 0.00859533
24.2384 1.20566e-15 1.88755 0.00834229
24.2384 1.20566e-15 -1.88755 0.00834229
24.0959 1.19852e-15 1.88755 0.00808442
24.0959 1.19852e-15 -1.88755 0.00808442
23.9585 1.19164e-15 1.88755 0.00782243
23.9585 1.19164e-15 -1.88755 0.00782243
23.8259 1.185e-15 1.88755 0.00755677
23.8259 1.185e-15 -1.88755 0.00755677
23.698 1.1786e-15 1.88755 0.0072882
23.698 1.1786e-15 -1.88755 0.0072882
23.5746 1.17242e-15 1.88755 0.00701728
23.5746 1.17242e-15 -1.88755 0.00701728
23.4557 1.16646e-15 1.88755 0.00674458
23.4557 1.16646e-15 -1.88755 0.00674458
23.3409 1.16071e-15 1.88755 0.00647059
23.3409 1.16071e-15 -1.88755 0.00647059
23.2302 1.15517e-15 1.88755 0.006196
23.2302 1.15517e-15 -1.88755 0.006196
23.1234 1.14982e-15 1.88755 0.00592126
23.1234 1.14982e-15 -1.88755 0.00592126
23.0203 1.14466e-15 1.88755 0.00564693
23.0203 1.14466e-15 -1.88755 0.00564693
22.921 1.13969e-15 1.88755 0.00537352
22.921 1.13969e-15 -1.88755 0.00537352
22.8251 1.13489e-15 1.88755 0.00510149
22.8251 1.13489e-15 -1.88755 0.00510149
22.7326 1.13026e-15 1.88755 0.00483134
22.7326 1.13026e-15 -1.88755 0.00483134
22.6435 1.12579e-15 1.88755 0.00456346
22.6435 1.12579e-15 -1.88755 0.00456346
22.5574 1.12148e-15 1.88755 0.00429833
22.5574 1.12148e-15 -1.88755 0.00429833
22.4744 1.11733e-15 1.88755 0.00403628
22.4744 1.11733e-15 -1.88755 0.00403628
22.3944 1.11332e-15 1.88755 0.00377762
22.3944 1.11332e-15 -1.88755 0.00377762
22.3172 1.10945e-15 1.88755 0.0035229
22.3172 1.10945e-15 -1.88755 0.0035229
22.2427 1.10572e-15 1.88755 0.00327255
22.2427 1.10572e-15 -1.88755 0.00327255
22.1708 1.10212e-15 1.88755 0.00302676
22.1708 1.10212e-15 -1.88755 0.00302676
22.1015 1.09865e-15 1.88755 0.00278584
22.1015 1.09865e-15 -1.88755 0.00278584
22.0347 1.0953e-15 1.88755 0.00255033
22.0347 1.0953e-15 -1.88755 0.00255033
21.9702 1.09208e-15 1.88755 0.00231935
21.9702 1.09208e-15 -1.88755 0.00231935
21.908 1.08896e-15 1.88755 0.00209349
21.908 1.08896e-15 -1.88755 0.00209349
21.848 1.73472e-15 1.88755 0.00187988
21.848 1.73472e-15 -1.88755 0.00187988
21.7876 0.000188157 1.88755 0.0016256
21.7876 0.000188157 -1.88755 0.0016256
21.7272 0.00075262 1.88755 0.00131676
21.7272 0.00075262 -1.88755 0.00131676
21.6668 0.00169337 1.88755 0.000991559
21.6668 0.00169337 -1.88755 0.000991559
21.6063 0.00301036 1.88755 0.000650484
21.6063 0.00301036 -1.88755 0.000650484
21.546 0.00470355 1.88755 0.000298487
21.546 0.00470355 -1.88755 0.000298487
21.4856 0.00677288 1.88755 -6.34772e-05
21.4856 0.00677288 -1.88755 -6.34772e-05
21.4252 0.00921825 1.88755 -0.000434232
21.4252 0.00921825 -1.88755 -0.000434232
21.3649 0.0120396 1.88755 -0.000813309
21.3649 0.0120396 -1.88755 -0.000813309
21.3045 0.0152368 1.88755 -0.00120019
21.3045 0.0152368 -1.88755 -0.00120019
21.2442 0.0188097 1.88755 -0.00159463
21.2442 0.0188097 -1.88755 -0.00159463
21.1839 0.0227581 1.88755 -0.00199633
21.1839 0.0227581 -1.88755 -0.00199633
21.1237 0.0270821 1.88755 -0.00240518
21.1237 0.0270821 -1.88755 -0.00240518
21.0634 0.0317812 1.88755 -0.00282099
21.0634 0.0317812 -1.88755 -0.00282099
21.0032 0.0368555 1.88755 -0.00324378
21.0032 0.0368555 -1.88755 -0.00324378
20.9431 0.0423046 1.88755 -0.00367346
20.9431 0.0423046 -1.88755 -0.00367346
20.8829 0.0481284 1.88755 -0.00411008
20.8829 0.0481284 -1.88755 -0.00411008
20.8228 0.0543267 1.88755 -0.00455361
20.8228 0.0543267 -1.88755 -0.00455361
20.7628 0.0608992 1.88755 -0.00500424
20.7628 0.0608992 -1.88755 -0.00500424
20.7027 0.0678456 1.88755 -0.00546198
20.7027 0.0678456 -1.88755 -0.00546198
20.6428 0.0751657 1.88755 -0.00592704
20.6428 0.0751657 -1.88755 -0.00592704
20.5828 0.0828592 1.88755 -0.00639954
20.5828 0.0828592 -1.88755 -0.00639954
20.523 0.0909258 1.88755 -0.00687983
20.523 0.0909258 -1.88755 -0.00687983
20.4631 0.0993652 1.88755 -0.0073681
20.4631 0.0993652 -1.88755 -0.0073681
20.4034 0.108177 1.88755 -0.00786476
20.4034 0.108177 -1.88755 -0.00786476
20.3437 0.117361 1.88755 -0.00837023
20.3437 0.117361 -1.88755 -0.00837023
20.284 0.126917 1.88755 -0.00888464
20.284 0.126917 -1.88755 -0.00888464
20.2244 0.136844 1.88755 -0.0094074
20.2244 0.136844 -1.88755 -0.0094074
20.1649 0.147142 1.88755 -0.00994587
20.1649 0.147142 -1.88755 -0.00994587
20.1058 0.157553 1.88755 -0.0104631
20.1058 0.157553 -1.88755 -0.0104631
20.0454 0.168194 1.88755 -0.0109543
20.0454 0.168194 -1.88755 -0.0109543
19.9837 0.17907 1.88755 -0.0114558
19.9837 0.17907 -1.88755 -0.0114558
19.9206 0.190185 1.88755 -0.0119671
19.9206 0.190185 -1.88755 -0.0119671
19.8561 0.201547 1.88755 -0.0124916
19.8561 0.201547 -1.88755 -0.0124916
19.7902 0.213159 1.88755 -0.0130301
19.7902 0.213159 -1.88755 -0.0130301
19.7228 0.225027 1.88755 -0.0135837
19.7228 0.225027 -1.88755 -0.0135837
19.654 0.237157 1.88755 -0.0141533
19.654 0.237157 -1.88755 -0.0141533
19.5836 0.249555 1.88755 -0.0147396
19.5836 0.249555 -1.88755 -0.0147396
19.5117 0.262227 1.88755 -0.0153435
19.5117 0.262227 -1.88755 -0.0153435
19.4382 0.275178 1.88755 -0.0159658
19.4382 0.275178 -1.88755 -0.0159658
19.363 0.288415 1.88755 -0.0166072
19.363 0.288415 -1.88755 -0.0166072
19.2863 0.301945 1.88755 -0.0172686
19.2863 0.301945 -1.88755 -0.0172686
19.2078 0.315773 1.88755 -0.0179506
19.2078 0.315773 -1.88755 -0.0179506
19.1276 0.329906 1.88755 -0.0186545
19.1276 0.329906 -1.88755 -0.0186545
19.0456 0.344351 1.88755 -0.0193808
19.0456 0.344351 -1.88755 -0.0193808
18.9618 0.359115 1.88755 -0.0201307
18.9618 0.359115 -1.88755 -0.0201307
18.8761 0.374205 1.88755 -0.020905
18.8761 0.374205 -1.88755 -0.020905
18.7886 0.389628 1.88755 -0.0217049
18.7886 0.389628 -1.88755 -0.0217049
18.6991 0.405391 1.88755 -0.0225314
18.6991 0.405391 -1.88755 -0.0225314
18.6077 0.421503 1.88755 -0.0233856
18.6077 0.421503 -1.88755 -0.0233856
18.5142 0.43797 1.88755 -0.0242687
18.5142 0.43797 -1.88755 -0.0242687
18.4187 0.4548 1.88755 -0.0251821
18.4187 0.4548 -1.88755 -0.0251821
18.3211 0.472002 1.88755 -0.0261268
18.3211 0.472002 -1.88755 -0.0261268
18.2213 0.489584 1.88755 -0.0271046
18.2213 0.489584 -1.88755 -0.0271046
18.1193 0.507553 1.88755 -0.0281165
18.1193 0.507553 -1.88755 -0.0281165
18.015 0.52592 1.88755 -0.0291644
18.015 0.52592 -1.88755 -0.0291644
17.9085 0.544691 1.88755 -0.0302497
17.9085 0.544691 -1.88755 -0.0302497
17.7996 0.563878 1.88755 -0.0313742
17.7996 0.563878 -1.88755 -0.0313742
17.6883 0.583487 1.88755 -0.0325398
17.6883 0.583487 -1.88755 -0.0325398
17.5746 0.60353 1.88755 -0.0337481
17.5746 0.60353 -1.88755 -0.0337481
17.4583 0.624014 1.88755 -0.0350014
17.4583 0.624014 -1.88755 -0.0350014
17.3395 0.644951 1.88755 -0.0363017
17.3395 0.644951 -1.88755 -0.0363017
17.218 0.66635 1.88755 -0.0376511
17.218 0.66635 -1.88755 -0.0376511
17.0939 0.688222 1.88755 -0.0390523
17.0939 0.688222 -1.88755 -0.0390523
16.967 0.710576 1.88755 -0.0405074
16.967 0.710576 -1.88755 -0.0405074
16.8373 0.733423 1.88755 -0.0420193
16.8373 0.733423 -1.88755 -0.0420193
16.7048 0.756775 1.88755 -0.0435908
16.7048 0.756775 -1.88755 -0.0435908
16.5693 0.780643 1.88755 -0.0452246
16.5693 0.780643 -1.88755 -0.0452246
16.4309 0.805037 1.88755 -0.0469243
16.4309 0.805037 -1.88755 -0.0469243
16.2894 0.829969 1.88755 -0.0486929
16.2894 0.829969 -1.88755 -0.0486929
16.1447 0.855452 1.88755 -0.0505343
16.1447 0.855452 -1.88755 -0.0505343
15.9969 0.881498 1.88755 -0.0524517
15.9969 0.881498 -1.88755 -0.0524517
15.8458 0.908118 1.88755 -0.0544496
15.8458 0.908118 -1.88755 -0.0544496
15.6914 0.935326 1.88755 -0.0565322
15.6914 0.935326 -1.88755 -0.0565322
15.5336 0.963134 1.88755 -0.0587038
15.5336 0.963134 -1.88755 -0.0587038
15.3722 0.991557 1.88755 -0.0609696
15.3722 0.991557 -1.88755 -0.0609696
15.2074 1.02061 1.88755 -0.0633344
15.2074 1.02061 -1.88755 -0.0633344
15.0389 1.0503 1.88755 -0.0658039
15.0389 1.0503 -1.88755 -0.0658039
14.8666 1.08064 1.88755 -0.0683839
14.8666 1.08064 -1.88755 -0.0683839
14.6906 1.11166 1.88755 -0.0710808
14.6906 1.11166 -1.88755 -0.0710808
14.5107 1.14336 1.88755 -0.073901
14.5107 1.14336 -1.88755 -0.073901
14.3268 1.17576 1.88755 -0.0768522
14.3268 1.17576 -1.88755 -0.0768522
14.1388 1.20888 1.88755 -0.0799417
14.1388 1.20888 -1.88755 -0.0799417
13.9467 1.24272 1.88755 -0.0831778
13.9467 1.24272 -1.88755 -0.0831778
13.7504 1.27731 1.88755 -0.0865699
13.7504 1.27731 -1.88755 -0.0865699
13.5497 1.31267 1.88755 -0.0901267
13.5497 1.31267 -1.88755 -0.0901267
13.3446 1.34881 1.88755 -0.0938597
13.3446 1.34881 -1.88755 -0.0938597
13.135 1.38574 1.88755 -0.097779
13.135 1.38574 -1.88755 -0.097779
12.9207 1.42349 1.88755 -0.101898
12.9207 1.42349 -1.88755 -0.101898
12.7017 1.46208 1.88755 -0.106228
12.7017 1.46208 -1.88755 -0.106228
12.4779 1.50151 1.88755 -0.110785
12.4779 1.50151 -1.88755 -0.110785
12.2491 1.54182 1.88755 -0.115584
12.2491 1.54182 -1.88755 -0.115584
12.0153 1.58301 1.88755 -0.120642
12.0153 1.58301 -1.88755 -0.120642
11.7763 1.62512 1.88755 -0.125978
11.7763 1.62512 -1.88755 -0.125978
11.5321 1.66815 1.88755 -0.131612
11.5321 1.66815 -1.88755 -0.131612
11.2825 1.71214 1.88755 -0.137566
11.2825 1.71214 -1.88755 -0.137566
11.0273 1.75709 1.88755 -0.143866
11.0273 1.75709 -1.88755 -0.143866
10.7665 1.80304 1.88755 -0.150538
10.7665 1.80304 -1.88755 -0.150538
10.5 1.85 1.88755 -0.157615
10.5 1.85 -1.88755 -0.157615
10.2335 1.89696 1.88755 -0.165047
10.2335 1.89696 -1.88755 -0.165047
9.97268 1.94291 1.88755 -0.172691
9.97268 1.94291 -1.88755 -0.172691
9.71754 1.98786 1.88755 -0.180461
9.71754 1.98786 -1.88755 -0.180461
9.4679 2.03185 1.88755 -0.188358
9.4679 2.03185 -1.88755 -0.188358
9.22365 2.07488 1.88755 -0.196382
9.22365 2.07488 -1.88755 -0.196382
8.98468 2.11699 1.88755 -0.204535
8.98468 2.11699 -1.88755 -0.204535
8.75087 2.15818 1.88755 -0.212814
8.75087 2.15818 -1.88755 -0.212814
8.5221 2.19849 1.88755 -0.221222
8.5221 2.19849 -1.88755 -0.221222
8.29828 2.23792 1.88755 -0.229758
8.29828 2.23792 -1.88755 -0.229758
8.0793 2.27651 1.88755 -0.238425
8.0793 2.27651 -1.88755 -0.238425
7.86504 2.31426 1.88755 -0.247222
7.86504 2.31426 -1.88755 -0.247222
7.6554 2.35119 1.88755 -0.25615
7.6554 2.35119 -1.88755 -0.25615
7.4503 2.38733 1.88755 -0.26521
7.4503 2.38733 -1.88755 -0.26521
7.24963 2.42269 1.88755 -0.274404
7.24963 2.42269 -1.88755 -0.274404
7.05328 2.45728 1.88755 -0.283732
7.05328 2.45728 -1.88755 -0.283732
6.86118 2.49112 1.88755 -0.293197
6.86118 2.49112 -1.88755 -0.293197
6.67323 2.52424 1.88755 -0.302798
6.67323 2.52424 -1.88755 -0.302798
6.48934 2.55664 1.88755 -0.312539
6.48934 2.55664 -1.88755 -0.312539
6.30942 2.58834 1.88755 -0.322421
6.30942 2.58834 -1.88755 -0.322421
6.13338 2.61936 1.88755 -0.332445
6.13338 2.61936 -1.88755 -0.332445
5.96114 2.6497 1.88755 -0.342613
5.96114 2.6497 -1.88755 -0.342613
5.79263 2.67939 1.88755 -0.352927
5.79263 2.67939 -1.88755 -0.352927
5.62775 2.70844 1.88755 -0.363391
5.62775 2.70844 -1.88755 -0.363391
5.46644 2.73687 1.88755 -0.374004
5.46644 2.73687 -1.88755 -0.374004
5.30861 2.76467 1.88755 -0.384769
5.30861 2.76467 -1.88755 -0.384769
5.15418 2.79188 1.88755 -0.395689
5.15418 2.79188 -1.88755 -0.395689
5.0031 2.8185 1.88755 -0.406768
5.0031 2.8185 -1.88755 -0.406768
4.85527 2.84455 1.88755 -0.418006
4.85527 2.84455 -1.88755 -0.418006
4.71064 2.87003 1.88755 -0.429406
4.71064 2.87003 -1.88755 -0.429406
4.56913 2.89496 1.88755 -0.44097
4.56913 2.89496 -1.88755 -0.44097
4.43067 2.91936 1.88755 -0.452703
4.43067 2.91936 -1.88755 -0.452703
4.29521 2.94322 1.88755 -0.464606
4.29521 2.94322 -1.88755 -0.464606
4.16267 2.96658 1.88755 -0.476681
4.16267 2.96658 -1.88755 -0.476681
4.033 2.98942 1.88755 -0.488931
4.033 2.98942 -1.88755 -0.488931
3.90612 3.01178 1.88755 -0.501362
3.90612 3.01178 -1.88755 -0.501362
3.78199 3.03365 1.88755 -0.513974
3.78199 3.03365 -1.88755 -0.513974
3.66053 3.05505 1.88755 -0.526769
3.66053 3.05505 -1.88755 -0.526769
3.5417 3.07599 1.88755 -0.539751
3.5417 3.07599 -1.88755 -0.539751
3.42544 3.09647 1.88755 -0.552926
3.42544 3.09647 -1.88755 -0.552926
3.31168 3.11651 1.88755 -0.566293
3.31168 3.11651 -1.88755 -0.566293
3.20039 3.13612 1.88755 -0.579855
3.20039 3.13612 -1.88755 -0.579855
3.09149 3.15531 1.88755 -0.593617
3.09149 3.15531 -1.88755 -0.593617
2.98495 3.17408 1.88755 -0.607584
2.98495 3.17408 -1.88755 -0.607584
2.88071 3.19245 1.88755 -0.621756
2.88071 3.19245 -1.88755 -0.621756
2.77872 3.21042 1.88755 -0.636135
2.77872 3.21042 -1.88755 -0.636135
2.67893 3.228 1.88755 -0.650731
2.67893 3.228 -1.88755 -0.650731
2.5813 3.2452 1.88755 -0.665544
2.5813 3.2452 -1.88755 -0.665544
2.48577 3.26203 1.88755 -0.680574
2.48577 3.26203 -1.88755 -0.680574
2.39231 3.2785 1.88755 -0.695831
2.39231 3.2785 -1.88755 -0.695831
2.30087 3.29461 1.88755 -0.711322
2.30087 3.29461 -1.88755 -0.711322
2.2114 3.31037 1.88755 -0.727043
2.2114 3.31037 -1.88755 -0.727043
2.12387 3.3258 1.88755 -0.743005
2.12387 3.3258 -1.88755 -0.743005
2.03822 3.34088 1.88755 -0.75922
2.03822 3.34088 -1.88755 -0.75922
1.95442 3.35565 1.88755 -0.775684
1.95442 3.35565 -1.88755 -0.775684
1.87244 3.37009 1.88755 -0.792411
1.87244 3.37009 -1.88755 -0.792411
1.79222 3.38423 1.88755 -0.809416
1.79222 3.38423 -1.88755 -0.809416
1.71374 3.39806 1.88755 -0.826701
1.71374 3.39806 -1.88755 -0.826701
1.63695 3.41158 1.88755 -0.844284
1.63695 3.41158 -1.88755 -0.844284
1.56182 3.42482 1.88755 -0.862177
1.56182 3.42482 -1.88755 -0.862177
1.48831 3.43777 1.88755 -0.8804
1.48831 3.43777 -1.88755 -0.8804
1.41639 3.45044 1.88755 -0.898976
1.41639 3.45044 -1.88755 -0.898976
1.34603 3.46284 1.88755 -0.91793
1.34603 3.46284 -1.88755 -0.91793
1.27718 3.47497 1.88755 -0.937291
1.27718 3.47497 -1.88755 -0.937291
1.20982 3.48684 1.88755 -0.957104
1.20982 3.48684 -1.88755 -0.957104
1.14391 3.49845 1.88755 -0.977409
1.14391 3.49845 -1.88755 -0.977409
1.07943 3.50981 1.88755 -0.998284
1.07943 3.50981 -1.88755 -0.998284
1.01634 3.52093 1.88755 -1.01986
1.01634 3.52093 -1.88755 -1.01986
0.954614 3.53181 1.88755 -1.04215
0.954614 3.53181 -1.88755 -1.04215
0.89422 3.54245 1.88755 -1.06528
0.89422 3.54245 -1.88755 -1.06528
0.83513 3.55286 1.88755 -1.09073
0.83513 3.55286 -1.88755 -1.09073
0.775596 3.56316 1.88755 -1.11673
0.775596 3.56316 -1.88755 -1.11673
0.716 3.57308 1.88755 -1.14138
0.716 3.57308 -1.88755 -1.14138
0.656344 3.58264 1.88755 -1.16574
0.656344 3.58264 -1.88755 -1.16574
0.596628 3.59182 1.88755 -1.18947
0.596628 3.59182 -1.88755 -1.18947
0.536857 3.60063 1.88755 -1.21263
0.536857 3.60063 -1.88755 -1.21263
0.477032 3.60907 1.88755 -1.23515
0.477032 3.60907 -1.88755 -1.23515
0.417156 3.61714 1.88755 -1.25702
0.417156 3.61714 -1.88755 -1.25702
0.357231 3.62483 1.88755 -1.27818
0.357231 3.62483 -1.88755 -1.27818
0.297259 3.63215 1.88755 -1.29857
0.297259 3.63215 -1.88755 -1.29857
0.237242 3.6391 1.88755 -1.31817
0.237242 3.6391 -1.88755 -1.31817
0.177183 3.64567 1.88755 -1.33693
0.177183 3.64567 -1.88755 -1.33693
0.117085 3.65187 1.88755 -1.35479
0.117085 3.65187 -1.88755 -1.35479
0.056949 3.6577 1.88755 -1.37168
0.056949 3.6577 -1.88755 -1.37168
-0.00322198 3.66314 1.88755 -1.38756
-0.00322198 3.66314 -1.88755 -1.38756
-0.0634257 3.66822 1.88755 -1.40234
-0.0634257 3.66822 -1.88755 -1.40234
-0.12366 3.67292 1.88755 -1.41593
-0.12366 3.67292 -1.88755 -1.41593
-0.183922 3.67724 1.88755 -1.42823
-0.183922 3.67724 -1.88755 -1.42823
-0.24421 3.68119 1.88755 -1.43916
-0.24421 3.68119 -1.88755 -1.43916
-0.304522 3.68476 1.88755 -1.44863
-0.304522 3.68476 -1.88755 -1.44863
-0.364854 3.68796 1.88755 -1.45661
-0.364854 3.68796 -1.88755 -1.45661
-0.425206 3.69078 1.88755 -1.463
-0.425206 3.69078 -1.88755 -1.463
-0.485573 3.69323 1.88755 -1.46767
-0.485573 3.69323 -1.88755 -1.46767
-0.545955 3.6953 1.88755 -1.47046
-0.545955 3.6953 -1.88755 -1.47046
-0.606349 3.69699 1.88755 -1.47113
-0.606349 3.69699 -1.88755 -1.47113
-0.666752 3.69831 1.88755 -1.46962
-0.666752 3.69831 -1.88755 -1.46962
-0.727161 3.69925 1.88755 -1.46606
-0.727161 3.69925 -1.88755 -1.46606
-0.787576 3.69981 1.88755 -1.45984
-0.787576 3.69981 -1.88755 -1.45984
-0.847993 3.7 1.88755 -1.44818
-0.847993 3.7 -1.88755 -1.44818
-0.907993 3.7 1.88755 -1.43634
-0.907993 3.7 -1.88755 -1.43634
-0.970739 3.7 1.88755 -1.42818
-0.970739 3.7 -1.88755 -1.42818
-1.03636 3.7 1.88755 -1.42102
-1.03636 3.7 -1.88755 -1.42102
-1.10498 3.7 1.88755 -1.41498
-1.10498 3.7 -1.88755 -1.41498
-1.17674 3.7 1.88755 -1.40966
-1.17674 3.7 -1.88755 -1.40966
-1.25179 3.7 1.88755 -1.40496
-1.25179 3.7 -1.88755 -1.40496
-1.33028 3.7 1.88755 -1.40074
-1.33028 3.7 -1.88755 -1.40074
-1.41235 3.7 1.88755 -1.39692
-1.41235 3.7 -1.88755 -1.39692
-1.49818 3.7 1.88755 -1.39342
-1.49818 3.7 -1.88755 -1.39342
-1.58795 3.7 1.88755 -1.39018
-1.58795 3.7 -1.88755 -1.39018
-1.68182 3.7 1.88755 -1.38715
-1.68182 3.7 -1.88755 -1.38715
-1.77998 3.7 1.88755 -1.38429
-1.77998 3.7 -1.88755 -1.38429
-1.88265 3.7 1.88755 -1.38155
-1.88265 3.7 -1.88755 -1.38155
-1.99001 3.7 1.88755 -1.3789
-1.99001 3.7 -1.88755 -1.3789
-2.10228 3.7 1.88755 -1.3763
-2.10228 3.7 -1.88755 -1.3763
-2.2197 3.7 1.88755 -1.37372
-2.2197 3.7 -1.88755 -1.37372
-2.34248 3.7 1.88755 -1.37115
-2.34248 3.7 -1.88755 -1.37115
-2.47089 3.7 1.88755 -1.36855
-2.47089 3.7 -1.88755 -1.36855
-2.60518 3.7 1.88755 -1.36591
-2.60518 3.7 -1.88755 -1.36591
-2.74561 3.7 1.88755 -1.3632
-2.74561 3.7 -1.88755 -1.3632
-2.89248 3.7 1.88755 -1.36041
-2.89248 3.7 -1.88755 -1.36041
-3.04606 3.7 1.88755 -1.35753
-3.04606 3.7 -1.88755 -1.35753
-3.20668 3.7 1.88755 -1.35455
-3.20668 3.7 -1.88755 -1.35455
-3.37464 3.7 1.88755 -1.35145
-3.37464 3.7 -1.88755 -1.35145
-3.5503 3.7 1.88755 -1.34821
-3.5503 3.7 -1.88755 -1.34821
-3.73399 3.7 1.88755 -1.34484
-3.73399 3.7 -1.88755 -1.34484
-3.9261 3.7 1.88755 -1.34133
-3.9261 3.7 -1.88755 -1.34133
-4.127 3.7 1.88755 -1.33765
-4.127 3.7 -1.88755 -1.33765
-4.33709 3.7 1.88755 -1.33381
-4.33709 3.7 -1.88755 -1.33381
-4.5568 3.7 1.88755 -1.3298
-4.5568 3.7 -1.88755 -1.3298
-4.77651 3.7 1.88755 -1.3257
-4.77651 3.7 -1.88755 -1.3257
-4.99551 3.7 1.88755 -1.32161
-4.99551 3.7 -1.88755 -1.32161
-5.21381 3.7 1.88755 -1.31753
-5.21381 3.7 -1.88755 -1.31753
-5.43139 3.7 1.88755 -1.31346
-5.43139 3.7 -1.88755 -1.31346
-5.64827 3.7 1.88755 -1.30941
-5.64827 3.7 -1.88755 -1.30941
-5.86445 3.7 1.88755 -1.30537
-5.86445 3.7 -1.88755 -1.30537
-6.07993 3.7 1.88755 -1.30135
-6.07993 3.7 -1.88755 -1.30135
-6.29471 3.7 1.88755 -1.29733
-6.29471 3.7 -1.88755 -1.29733
-6.5088 3.7 1.88755 -1.29333
-6.5088 3.7 -1.88755 -1.29333
-6.72219 3.7 1.88755 -1.28935
-6.72219 3.7 -1.88755 -1.28935
-6.9349 3.7 1.88755 -1.28538
-6.9349 3.7 -1.88755 -1.28538
-7.14691 3.7 1.88755 -1.28142
-7.14691 3.7 -1.88755 -1.28142
-7.35824 3.7 1.88755 -1.27747
-7.35824 3.7 -1.88755 -1.27747
-7.56889 3.7 1.88755 -1.27354
-7.56889 3.7 -1.88755 -1.27354
-7.77885 3.7 1.88755 -1.26962
-7.77885 3.7 -1.88755 -1.26962
-7.98813 3.7 1.88755 -1.26571
-7.98813 3.7 -1.88755 -1.26571
-8.19674 3.7 1.88755 -1.26181
-8.19674 3.7 -1.88755 -1.26181
-8.40467 3.7 1.88755 -1.25793
-8.40467 3.7 -1.88755 -1.25793
-8.61193 3.7 1.88755 -1.25406
-8.61193 3.7 -1.88755 -1.25406
-8.81852 3.7 1.88755 -1.2502
-8.81852 3.7 -1.88755 -1.2502
-9.02444 3.7 1.88755 -1.24636
-9.02444 3.7 -1.88755 -1.24636
-9.2297 3.7 1.88755 -1.24253
-9.2297 3.7 -1.88755 -1.24253
-9.43428 3.7 1.88755 -1.23871
-9.43428 3.7 -1.88755 -1.23871
-9.63821 3.7 1.88755 -1.23491
-9.63821 3.7 -1.88755 -1.23491
-9.84148 3.7 1.88755 -1.23111
-9.84148 3.7 -1.88755 -1.23111
-10.0441 3.7 1.88755 -1.22733
-10.0441 3.7 -1.88755 -1.22733
-10.246 3.7 1.88755 -1.22356
-10.246 3.7 -1.88755 -1.22356
-10.4473 3.7 1.88755 -1.21981
-10.4473 3.7 -1.88755 -1.21981
-10.648 3.7 1.88755 -1.21607
-10.648 3.7 -1.88755 -1.21607
-10.848 3.7 1.88755 -1.21226
-10.848 3.7 -1.88755 -1.21226
-59.848 3.7 1.88755 -0.288311
-60.848 3.7 1.88755 -0.288311
-60.848 3.7 -1.88755 -0.288311
-59.848 3.7 -1.88755 -0.288311
-58.8506 3.7 1.88755 -0.306846
-58.8506 3.7 -1.88755 -0.306846
-57.8559 3.7 1.88755 -0.325346
-57.8559 3.7 -1.88755 -0.325346
-56.8639 3.7 1.88755 -0.343808
-56.8639 3.7 -1.88755 -0.343808
-55.8744 3.7 1.88755 -0.362231
-55.8744 3.7 -1.88755 -0.362231
-54.8876 3.7 1.88755 -0.380615
-54.8876 3.7 -1.88755 -0.380615
-53.9034 3.7 1.88755 -0.398958
-53.9034 3.7 -1.88755 -0.398958
-52.9218 3.7 1.88755 -0.417259
-52.9218 3.7 -1.88755 -0.417259
-51.9429 3.7 1.88755 -0.435518
-51.9429 3.7 -1.88755 -0.435518
-50.9665 3.7 1.88755 -0.453734
-50.9665 3.7 -1.88755 -0.453734
-49.9927 3.7 1.88755 -0.471905
-49.9927 3.7 -1.88755 -0.471905
-49.0215 3.7 1.88755 -0.490031
-49.0215 3.7 -1.88755 -0.490031
-48.0528 3.7 1.88755 -0.508112
-48.0528 3.7 -1.88755 -0.508112
-47.0867 3.7 1.88755 -0.526147
-47.0867 3.7 -1.88755 -0.526147
-46.1232 3.7 1.88755 -0.544136
-46.1232 3.7 -1.88755 -0.544136
-45.1622 3.7 1.88755 -0.562078
-45.1622 3.7 -1.88755 -0.562078
-44.2038 3.7 1.88755 -0.579974
-44.2038 3.7 -1.88755 -0.579974
-43.248 3.7 1.88755 -0.597822
-43.248 3.7 -1.88755 -0.597822
-42.2946 3.7 1.88755 -0.615623
-42.2946 3.7 -1.88755 -0.615623
-41.3438 3.7 1.88755 -0.633376
-41.3438 3.7 -1.88755 -0.633376
-40.3955 3.7 1.88755 -0.651081
-40.3955 3.7 -1.88755 -0.651081
-39.4497 3.7 1.88755 -0.66874
-39.4497 3.7 -1.88755 -0.66874
-38.5065 3.7 1.88755 -0.68635
-38.5065 3.7 -1.88755 -0.68635
-37.5657 3.7 1.88755 -0.703913
-37.5657 3.7 -1.88755 -0.703913
-36.6274 3.7 1.88755 -0.721428
-36.6274 3.7 -1.88755 -0.721428
-35.6916 3.7 1.88755 -0.738896
-35.6916 3.7 -1.88755 -0.738896
-34.7583 3.7 1.88755 -0.756317
-34.7583 3.7 -1.88755 -0.756317
-33.8275 3.7 1.88755 -0.773691
-33.8275 3.7 -1.88755 -0.773691
-32.8991 3.7 1.88755 -0.791017
-32.8991 3.7 -1.88755 -0.791017
-31.9732 3.7 1.88755 -0.808296
-31.9732 3.7 -1.88755 -0.808296
-31.0498 3.7 1.88755 -0.825529
-31.0498 3.7 -1.88755 -0.825529
-30.1288 3.7 1.88755 -0.842715
-30.1288 3.7 -1.88755 -0.842715
-29.2102 3.7 1.88755 -0.859855
-29.2102 3.7 -1.88755 -0.859855
-28.2941 3.7 1.88755 -0.876948
-28.2941 3.7 -1.88755 -0.876948
-27.3804 3.7 1.88755 -0.893996
-27.3804 3.7 -1.88755 -0.893996
-26.4667 3.7 1.88755 -0.911019
-26.4667 3.7 -1.88755 -0.911019
-25.5929 3.7 1.88755 -0.927671
-25.5929 3.7 -1.88755 -0.927671
-24.7573 3.7 1.88755 -0.943594
-24.7573 3.7 -1.88755 -0.943594
-23.9582 3.7 1.88755 -0.958821
-23.9582 3.7 -1.88755 -0.958821
-23.1941 3.7 1.88755 -0.973382
-23.1941 3.7 -1.88755 -0.973382
-22.4633 3.7 1.88755 -0.987306
-22.4633 3.7 -1.88755 -0.987306
-21.7645 3.7 1.88755 -1.00062
-21.7645 3.7 -1.88755 -1.00062
-21.0962 3.7 1.88755 -1.01336
-21.0962 3.7 -1.88755 -1.01336
-20.4571 3.7 1.88755 -1.02553
-20.4571 3.7 -1.88755 -1.02553
-19.8459 3.7 1.88755 -1.03718
-19.8459 3.7 -1.88755 -1.03718
-19.2615 3.7 1.88755 -1.04831
-19.2615 3.7 -1.88755 -1.04831
-18.7026 3.7 1.88755 -1.05896
-18.7026 3.7 -1.88755 -1.05896
-18.1681 3.7 1.88755 -1.06915
-18.1681 3.7 -1.88755 -1.06915