# p  POINT_DATA 994
# x y z  p
76.848 4.7 1.88755 6.3202e-05
77.848 4.7 1.88755 6.3202e-05
77.848 4.7 -1.88755 6.3202e-05
76.848 4.7 -1.88755 6.3202e-05
75.8596 4.7 -1.88755 0.000380174
75.8596 4.7 1.88755 0.000380174
74.8826 4.7 -1.88755 0.00057752
74.8826 4.7 1.88755 0.00057752
73.9169 4.7 -1.88755 0.000817439
73.9169 4.7 1.88755 0.000817439
72.9624 4.7 -1.88755 0.00104251
72.9624 4.7 1.88755 0.00104251
72.019 4.7 -1.88755 0.00127211
72.019 4.7 1.88755 0.00127211
71.0865 4.7 -1.88755 0.00149816
71.0865 4.7 1.88755 0.00149816
70.1648 4.7 -1.88755 0.00172383
70.1648 4.7 1.88755 0.00172383
69.2537 4.7 -1.88755 0.00194752
69.2537 4.7 1.88755 0.00194752
68.3532 4.7 -1.88755 0.00217003
68.3532 4.7 1.88755 0.00217003
67.4632 4.7 -1.88755 0.00239078
67.4632 4.7 1.88755 0.00239078
66.5834 4.7 -1.88755 0.00261025
66.5834 4.7 1.88755 0.00261025
65.7138 4.7 -1.88755 0.00282798
65.7138 4.7 1.88755 0.00282798
64.8543 4.7 -1.88755 0.00304437
64.8543 4.7 1.88755 0.00304437
64.0048 4.7 -1.88755 0.0032589
64.0048 4.7 1.88755 0.0032589
63.1651 4.7 -1.88755 0.00347258
63.1651 4.7 1.88755 0.00347258
62.3351 4.7 -1.88755 0.00368405
62.3351 4.7 1.88755 0.00368405
61.5147 4.7 -1.88755 0.0038946
61.5147 4.7 1.88755 0.0038946
60.7038 4.7 -1.88755 0.00410321
60.7038 4.7 1.88755 0.00410321
59.9024 4.7 -1.88755 0.00431064
59.9024 4.7 1.88755 0.00431064
59.1102 4.7 -1.88755 0.00451637
59.1102 4.7 1.88755 0.00451637
58.3271 4.7 -1.88755 0.00472072
58.3271 4.7 1.88755 0.00472072
57.5532 4.7 -1.88755 0.0049235
57.5532 4.7 1.88755 0.0049235
56.7882 4.7 -1.88755 0.00512478
56.7882 4.7 1.88755 0.00512478
56.032 4.7 -1.88755 0.00532456
56.032 4.7 1.88755 0.00532456
55.2846 4.7 -1.88755 0.00552275
55.2846 4.7 1.88755 0.00552275
54.5459 4.7 -1.88755 0.00571947
54.5459 4.7 1.88755 0.00571947
53.8157 4.7 -1.88755 0.00591452
53.8157 4.7 1.88755 0.00591452
53.094 4.7 -1.88755 0.00610809
53.094 4.7 1.88755 0.00610809
52.3806 4.7 -1.88755 0.00629991
52.3806 4.7 1.88755 0.00629991
51.6755 4.7 -1.88755 0.00649022
51.6755 4.7 1.88755 0.00649022
50.9785 4.7 -1.88755 0.0066787
50.9785 4.7 1.88755 0.0066787
50.2897 4.7 -1.88755 0.0068656
50.2897 4.7 1.88755 0.0068656
49.6088 4.7 -1.88755 0.00705058
49.6088 4.7 1.88755 0.00705058
48.9358 4.7 -1.88755 0.00723388
48.9358 4.7 1.88755 0.00723388
48.2705 4.7 -1.88755 0.00741514
48.2705 4.7 1.88755 0.00741514
47.613 4.7 -1.88755 0.00759459
47.613 4.7 1.88755 0.00759459
46.9631 4.7 -1.88755 0.00777183
46.9631 4.7 1.88755 0.00777183
46.3207 4.7 -1.88755 0.0079471
46.3207 4.7 1.88755 0.0079471
45.6858 4.7 -1.88755 0.00811994
45.6858 4.7 1.88755 0.00811994
45.0582 4.7 -1.88755 0.00829061
45.0582 4.7 1.88755 0.00829061
44.4379 4.7 -1.88755 0.00845858
44.4379 4.7 1.88755 0.00845858
43.8248 4.7 -1.88755 0.00862411
43.8248 4.7 1.88755 0.00862411
43.2187 4.7 -1.88755 0.00878659
43.2187 4.7 1.88755 0.00878659
42.6197 4.7 -1.88755 0.00894627
42.6197 4.7 1.88755 0.00894627
42.0276 4.7 -1.88755 0.00910247
42.0276 4.7 1.88755 0.00910247
41.4424 4.7 -1.88755 0.00925543
41.4424 4.7 1.88755 0.00925543
40.8639 4.7 -1.88755 0.00940437
40.8639 4.7 1.88755 0.00940437
40.2922 4.7 -1.88755 0.0095495
40.2922 4.7 1.88755 0.0095495
39.727 4.7 -1.88755 0.00968992
39.727 4.7 1.88755 0.00968992
39.1685 4.7 -1.88755 0.00982582
39.1685 4.7 1.88755 0.00982582
38.6163 4.7 -1.88755 0.00995615
38.6163 4.7 1.88755 0.00995615
38.0706 4.7 -1.88755 0.0100811
38.0706 4.7 1.88755 0.0100811
37.5312 4.7 -1.88755 0.0101993
37.5312 4.7 1.88755 0.0101993
36.998 4.7 -1.88755 0.010311
36.998 4.7 1.88755 0.010311
36.4711 4.7 -1.88755 0.0104148
36.4711 4.7 1.88755 0.0104148
35.9502 4.7 -1.88755 0.0105105
35.9502 4.7 1.88755 0.0105105
35.4353 4.7 -1.88755 0.0105966
35.4353 4.7 1.88755 0.0105966
34.9264 4.7 -1.88755 0.010673
34.9264 4.7 1.88755 0.010673
34.4234 4.7 -1.88755 0.0107375
34.4234 4.7 1.88755 0.0107375
33.9204 4.7 -1.88755 0.0107904
33.9204 4.7 1.88755 0.0107904
33.4352 4.7 -1.88755 0.0108288
33.4352 4.7 1.88755 0.0108288
32.9672 4.7 -1.88755 0.0108518
32.9672 4.7 1.88755 0.0108518
32.5157 4.7 -1.88755 0.0108585
32.5157 4.7 1.88755 0.0108585
32.0803 4.7 -1.88755 0.0108493
32.0803 4.7 1.88755 0.0108493
31.6602 4.7 -1.88755 0.0108231
31.6602 4.7 1.88755 0.0108231
31.255 4.7 -1.88755 0.0107804
31.255 4.7 1.88755 0.0107804
30.8642 4.7 -1.88755 0.0107203
30.8642 4.7 1.88755 0.0107203
30.4871 4.7 -1.88755 0.0106433
30.4871 4.7 1.88755 0.0106433
30.1235 4.7 -1.88755 0.0105488
30.1235 4.7 1.88755 0.0105488
29.7727 4.7 -1.88755 0.0104371
29.7727 4.7 1.88755 0.0104371
29.4343 4.7 -1.88755 0.010308
29.4343 4.7 1.88755 0.010308
29.1079 4.7 -1.88755 0.0101619
29.1079 4.7 1.88755 0.0101619
28.793 4.7 -1.88755 0.00999871
28.793 4.7 1.88755 0.00999871
28.4893 4.7 -1.88755 0.00981895
28.4893 4.7 1.88755 0.00981895
28.1964 4.7 -1.88755 0.00962267
28.1964 4.7 1.88755 0.00962267
27.9138 4.7 -1.88755 0.00941053
27.9138 4.7 1.88755 0.00941053
27.6412 4.7 -1.88755 0.00918277
27.6412 4.7 1.88755 0.00918277
27.3783 4.7 -1.88755 0.00894011
27.3783 4.7 1.88755 0.00894011
27.1246 4.7 -1.88755 0.00868295
27.1246 4.7 1.88755 0.00868295
26.88 4.7 -1.88755 0.00841207
26.88 4.7 1.88755 0.00841207
26.644 4.7 -1.88755 0.00812803
26.644 4.7 1.88755 0.00812803
26.4164 4.7 -1.88755 0.00783163
26.4164 4.7 1.88755 0.00783163
26.1968 4.7 -1.88755 0.00752356
26.1968 4.7 1.88755 0.00752356
25.985 4.7 -1.88755 0.00720465
25.985 4.7 1.88755 0.00720465
25.7807 4.7 -1.88755 0.00687567
25.7807 4.7 1.88755 0.00687567
25.5836 4.7 -1.88755 0.00653744
25.5836 4.7 1.88755 0.00653744
25.3935 4.7 -1.88755 0.00619081
25.3935 4.7 1.88755 0.00619081
25.2101 4.7 -1.88755 0.00583658
25.2101 4.7 1.88755 0.00583658
25.0332 4.7 -1.88755 0.00547561
25.0332 4.7 1.88755 0.00547561
24.8626 4.7 -1.88755 0.0051087
24.8626 4.7 1.88755 0.0051087
24.698 4.7 -1.88755 0.0047367
24.698 4.7 1.88755 0.0047367
24.5393 4.7 -1.88755 0.00436037
24.5393 4.7 1.88755 0.00436037
24.3861 4.7 -1.88755 0.00398054
24.3861 4.7 1.88755 0.00398054
24.2384 4.7 -1.88755 0.00359793
24.2384 4.7 1.88755 0.00359793
24.0959 4.7 -1.88755 0.00321331
24.0959 4.7 1.88755 0.00321331
23.9585 4.7 -1.88755 0.00282737
23.9585 4.7 1.88755 0.00282737
23.8259 4.7 -1.88755 0.00244082
23.8259 4.7 1.88755 0.00244082
23.698 4.7 -1.88755 0.00205429
23.698 4.7 1.88755 0.00205429
23.5746 4.7 -1.88755 0.00166841
23.5746 4.7 1.88755 0.00166841
23.4557 4.7 -1.88755 0.00128376
23.4557 4.7 1.88755 0.00128376
23.3409 4.7 -1.88755 0.00090092
23.3409 4.7 1.88755 0.00090092
23.2302 4.7 -1.88755 0.00052038
23.2302 4.7 1.88755 0.00052038
23.1234 4.7 -1.88755 0.000142648
23.1234 4.7 1.88755 0.000142648
23.0203 4.7 -1.88755 -0.000231838
23.0203 4.7 1.88755 -0.000231838
22.921 4.7 -1.88755 -0.000602647
22.921 4.7 1.88755 -0.000602647
22.8251 4.7 -1.88755 -0.000969405
22.8251 4.7 1.88755 -0.000969405
22.7326 4.7 -1.88755 -0.00133175
22.7326 4.7 1.88755 -0.00133175
22.6435 4.7 -1.88755 -0.00168937
22.6435 4.7 1.88755 -0.00168937
22.5574 4.7 -1.88755 -0.00204197
22.5574 4.7 1.88755 -0.00204197
22.4744 4.7 -1.88755 -0.00238929
22.4744 4.7 1.88755 -0.00238929
22.3944 4.7 -1.88755 -0.00273111
22.3944 4.7 1.88755 -0.00273111
22.3172 4.7 -1.88755 -0.00306721
22.3172 4.7 1.88755 -0.00306721
22.2427 4.7 -1.88755 -0.00339743
22.2427 4.7 1.88755 -0.00339743
22.1708 4.7 -1.88755 -0.0037216
22.1708 4.7 1.88755 -0.0037216
22.1015 4.7 -1.88755 -0.00403962
22.1015 4.7 1.88755 -0.00403962
22.0347 4.7 -1.88755 -0.00435135
22.0347 4.7 1.88755 -0.00435135
21.9702 4.7 -1.88755 -0.00465669
21.9702 4.7 1.88755 -0.00465669
21.908 4.7 -1.88755 -0.00495561
21.908 4.7 1.88755 -0.00495561
21.848 4.7 -1.88755 -0.00524813
21.848 4.7 1.88755 -0.00524813
21.7879 4.7 -1.88755 -0.00553947
21.7879 4.7 1.88755 -0.00553947
21.7278 4.7 -1.88755 -0.00583505
21.7278 4.7 1.88755 -0.00583505
21.6677 4.7 -1.88755 -0.00613475
21.6677 4.7 1.88755 -0.00613475
21.6075 4.7 -1.88755 -0.00643855
21.6075 4.7 1.88755 -0.00643855
21.5474 4.7 -1.88755 -0.00674651
21.5474 4.7 1.88755 -0.00674651
21.4873 4.7 -1.88755 -0.00705866
21.4873 4.7 1.88755 -0.00705866
21.4272 4.7 -1.88755 -0.00737502
21.4272 4.7 1.88755 -0.00737502
21.3671 4.7 -1.88755 -0.0076956
21.3671 4.7 1.88755 -0.0076956
21.307 4.7 -1.88755 -0.00802045
21.307 4.7 1.88755 -0.00802045
21.2469 4.7 -1.88755 -0.0083496
21.2469 4.7 1.88755 -0.0083496
21.1868 4.7 -1.88755 -0.0086831
21.1868 4.7 1.88755 -0.0086831
21.1267 4.7 -1.88755 -0.00902098
21.1267 4.7 1.88755 -0.00902098
21.0665 4.7 -1.88755 -0.00936324
21.0665 4.7 1.88755 -0.00936324
21.0064 4.7 -1.88755 -0.00970991
21.0064 4.7 1.88755 -0.00970991
20.9463 4.7 -1.88755 -0.010061
20.9463 4.7 1.88755 -0.010061
20.8862 4.7 -1.88755 -0.0104166
20.8862 4.7 1.88755 -0.0104166
20.8261 4.7 -1.88755 -0.0107767
20.8261 4.7 1.88755 -0.0107767
20.766 4.7 -1.88755 -0.0111413
20.766 4.7 1.88755 -0.0111413
20.7059 4.7 -1.88755 -0.0115105
20.7059 4.7 1.88755 -0.0115105
20.6458 4.7 -1.88755 -0.0118843
20.6458 4.7 1.88755 -0.0118843
20.5857 4.7 -1.88755 -0.0122626
20.5857 4.7 1.88755 -0.0122626
20.5255 4.7 -1.88755 -0.0126456
20.5255 4.7 1.88755 -0.0126456
20.4654 4.7 -1.88755 -0.0130332
20.4654 4.7 1.88755 -0.0130332
20.4053 4.7 -1.88755 -0.0134255
20.4053 4.7 1.88755 -0.0134255
20.3452 4.7 -1.88755 -0.0138225
20.3452 4.7 1.88755 -0.0138225
20.2851 4.7 -1.88755 -0.0142243
20.2851 4.7 1.88755 -0.0142243
20.225 4.7 -1.88755 -0.0146308
20.225 4.7 1.88755 -0.0146308
20.1649 4.7 -1.88755 -0.015042
20.1649 4.7 1.88755 -0.015042
20.1049 4.7 -1.88755 -0.0154578
20.1049 4.7 1.88755 -0.0154578
20.0436 4.7 -1.88755 -0.0158826
20.0436 4.7 1.88755 -0.0158826
19.9809 4.7 -1.88755 -0.0163217
19.9809 4.7 1.88755 -0.0163217
19.9169 4.7 -1.88755 -0.0167757
19.9169 4.7 1.88755 -0.0167757
19.8516 4.7 -1.88755 -0.0172452
19.8516 4.7 1.88755 -0.0172452
19.7848 4.7 -1.88755 -0.0177307
19.7848 4.7 1.88755 -0.0177307
19.7165 4.7 -1.88755 -0.018233
19.7165 4.7 1.88755 -0.018233
19.6468 4.7 -1.88755 -0.0187527
19.6468 4.7 1.88755 -0.0187527
19.5755 4.7 -1.88755 -0.0192904
19.5755 4.7 1.88755 -0.0192904
19.5027 4.7 -1.88755 -0.019847
19.5027 4.7 1.88755 -0.019847
19.4284 4.7 -1.88755 -0.0204231
19.4284 4.7 1.88755 -0.0204231
19.3524 4.7 -1.88755 -0.0210195
19.3524 4.7 1.88755 -0.0210195
19.2747 4.7 -1.88755 -0.0216372
19.2747 4.7 1.88755 -0.0216372
19.1954 4.7 -1.88755 -0.0222769
19.1954 4.7 1.88755 -0.0222769
19.1144 4.7 -1.88755 -0.0229395
19.1144 4.7 1.88755 -0.0229395
19.0315 4.7 -1.88755 -0.023626
19.0315 4.7 1.88755 -0.023626
18.9469 4.7 -1.88755 -0.0243374
18.9469 4.7 1.88755 -0.0243374
18.8605 4.7 -1.88755 -0.0250748
18.8605 4.7 1.88755 -0.0250748
18.7722 4.7 -1.88755 -0.0258392
18.7722 4.7 1.88755 -0.0258392
18.6819 4.7 -1.88755 -0.0266318
18.6819 4.7 1.88755 -0.0266318
18.5898 4.7 -1.88755 -0.0274538
18.5898 4.7 1.88755 -0.0274538
18.4956 4.7 -1.88755 -0.0283064
18.4956 4.7 1.88755 -0.0283064
18.3993 4.7 -1.88755 -0.029191
18.3993 4.7 1.88755 -0.029191
18.301 4.7 -1.88755 -0.030109
18.301 4.7 1.88755 -0.030109
18.2005 4.7 -1.88755 -0.0310618
18.2005 4.7 1.88755 -0.0310618
18.0979 4.7 -1.88755 -0.0320511
18.0979 4.7 1.88755 -0.0320511
17.993 4.7 -1.88755 -0.0330784
17.993 4.7 1.88755 -0.0330784
17.8859 4.7 -1.88755 -0.0341453
17.8859 4.7 1.88755 -0.0341453
17.7764 4.7 -1.88755 -0.0352539
17.7764 4.7 1.88755 -0.0352539
17.6645 4.7 -1.88755 -0.0364059
17.6645 4.7 1.88755 -0.0364059
17.5502 4.7 -1.88755 -0.0376034
17.5502 4.7 1.88755 -0.0376034
17.4335 4.7 -1.88755 -0.0388484
17.4335 4.7 1.88755 -0.0388484
17.3142 4.7 -1.88755 -0.0401433
17.3142 4.7 1.88755 -0.0401433
17.1923 4.7 -1.88755 -0.0414902
17.1923 4.7 1.88755 -0.0414902
17.0678 4.7 -1.88755 -0.0428919
17.0678 4.7 1.88755 -0.0428919
16.9405 4.7 -1.88755 -0.0443509
16.9405 4.7 1.88755 -0.0443509
16.8105 4.7 -1.88755 -0.04587
16.8105 4.7 1.88755 -0.04587
16.6777 4.7 -1.88755 -0.047452
16.6777 4.7 1.88755 -0.047452
16.542 4.7 -1.88755 -0.0491003
16.542 4.7 1.88755 -0.0491003
16.4034 4.7 -1.88755 -0.050818
16.4034 4.7 1.88755 -0.050818
16.2617 4.7 -1.88755 -0.0526087
16.2617 4.7 1.88755 -0.0526087
16.117 4.7 -1.88755 -0.0544761
16.117 4.7 1.88755 -0.0544761
15.9691 4.7 -1.88755 -0.0564242
15.9691 4.7 1.88755 -0.0564242
15.818 4.7 -1.88755 -0.058457
15.818 4.7 1.88755 -0.058457
15.6636 4.7 -1.88755 -0.0605792
15.6636 4.7 1.88755 -0.0605792
15.5059 4.7 -1.88755 -0.0627953
15.5059 4.7 1.88755 -0.0627953
15.3448 4.7 -1.88755 -0.0651106
15.3448 4.7 1.88755 -0.0651106
15.1801 4.7 -1.88755 -0.0675302
15.1801 4.7 1.88755 -0.0675302
15.0119 4.7 -1.88755 -0.07006
15.0119 4.7 1.88755 -0.07006
14.84 4.7 -1.88755 -0.0727058
14.84 4.7 1.88755 -0.0727058
14.6644 4.7 -1.88755 -0.0754744
14.6644 4.7 1.88755 -0.0754744
14.485 4.7 -1.88755 -0.0783725
14.485 4.7 1.88755 -0.0783725
14.3017 4.7 -1.88755 -0.0814076
14.3017 4.7 1.88755 -0.0814076
14.1144 4.7 -1.88755 -0.0845875
14.1144 4.7 1.88755 -0.0845875
13.9231 4.7 -1.88755 -0.087921
13.9231 4.7 1.88755 -0.087921
13.7276 4.7 -1.88755 -0.0914166
13.7276 4.7 1.88755 -0.0914166
13.5278 4.7 -1.88755 -0.0950846
13.5278 4.7 1.88755 -0.0950846
13.3237 4.7 -1.88755 -0.098935
13.3237 4.7 1.88755 -0.098935
13.1152 4.7 -1.88755 -0.10298
13.1152 4.7 1.88755 -0.10298
12.9022 4.7 -1.88755 -0.10723
12.9022 4.7 1.88755 -0.10723
12.6845 4.7 -1.88755 -0.1117
12.6845 4.7 1.88755 -0.1117
12.4621 4.7 -1.88755 -0.116403
12.4621 4.7 1.88755 -0.116403
12.2349 4.7 -1.88755 -0.121355
12.2349 4.7 1.88755 -0.121355
12.0027 4.7 -1.88755 -0.126572
12.0027 4.7 1.88755 -0.126572
11.7655 4.7 -1.88755 -0.132073
11.7655 4.7 1.88755 -0.132073
11.5232 4.7 -1.88755 -0.137879
11.5232 4.7 1.88755 -0.137879
11.2755 4.7 -1.88755 -0.14401
11.2755 4.7 1.88755 -0.14401
11.0226 4.7 -1.88755 -0.150491
11.0226 4.7 1.88755 -0.150491
10.7641 4.7 -1.88755 -0.15735
10.7641 4.7 1.88755 -0.15735
10.5 4.7 -1.88755 -0.164615
10.5 4.7 1.88755 -0.164615
10.2359 4.7 -1.88755 -0.17224
10.2359 4.7 1.88755 -0.17224
9.97744 4.7 -1.88755 -0.180074
9.97744 4.7 1.88755 -0.180074
9.72445 4.7 -1.88755 -0.188035
9.72445 4.7 1.88755 -0.188035
9.47684 4.7 -1.88755 -0.19612
9.47684 4.7 1.88755 -0.19612
9.2345 4.7 -1.88755 -0.204332
9.2345 4.7 1.88755 -0.204332
8.9973 4.7 -1.88755 -0.212669
8.9973 4.7 1.88755 -0.212669
8.76514 4.7 -1.88755 -0.221132
8.76514 4.7 1.88755 -0.221132
8.53792 4.7 -1.88755 -0.229722
8.53792 4.7 1.88755 -0.229722
8.31552 4.7 -1.88755 -0.23844
8.31552 4.7 1.88755 -0.23844
8.09785 4.7 -1.88755 -0.247286
8.09785 4.7 1.88755 -0.247286
7.8848 4.7 -1.88755 -0.256262
7.8848 4.7 1.88755 -0.256262
7.67629 4.7 -1.88755 -0.265368
7.67629 4.7 1.88755 -0.265368
7.4722 4.7 -1.88755 -0.274607
7.4722 4.7 1.88755 -0.274607
7.27245 4.7 -1.88755 -0.28398
7.27245 4.7 1.88755 -0.28398
7.07694 4.7 -1.88755 -0.293488
7.07694 4.7 1.88755 -0.293488
6.88558 4.7 -1.88755 -0.303133
6.88558 4.7 1.88755 -0.303133
6.6983 4.7 -1.88755 -0.312917
6.6983 4.7 1.88755 -0.312917
6.51499 4.7 -1.88755 -0.322843
6.51499 4.7 1.88755 -0.322843
6.33558 4.7 -1.88755 -0.332911
6.33558 4.7 1.88755 -0.332911
6.15998 4.7 -1.88755 -0.343125
6.15998 4.7 1.88755 -0.343125
5.98811 4.7 -1.88755 -0.353487
5.98811 4.7 1.88755 -0.353487
5.81989 4.7 -1.88755 -0.363998
5.81989 4.7 1.88755 -0.363998
5.65525 4.7 -1.88755 -0.374661
5.65525 4.7 1.88755 -0.374661
5.4941 4.7 -1.88755 -0.385479
5.4941 4.7 1.88755 -0.385479
5.33638 4.7 -1.88755 -0.396456
5.33638 4.7 1.88755 -0.396456
5.18201 4.7 -1.88755 -0.407591
5.18201 4.7 1.88755 -0.407591
5.03092 4.7 -1.88755 -0.418889
5.03092 4.7 1.88755 -0.418889
4.88305 4.7 -1.88755 -0.430352
4.88305 4.7 1.88755 -0.430352
4.73831 4.7 -1.88755 -0.441984
4.73831 4.7 1.88755 -0.441984
4.59665 4.7 -1.88755 -0.453785
4.59665 4.7 1.88755 -0.453785
4.458 4.7 -1.88755 -0.465759
4.458 4.7 1.88755 -0.465759
4.32229 4.7 -1.88755 -0.477909
4.32229 4.7 1.88755 -0.477909
4.18947 4.7 -1.88755 -0.490237
4.18947 4.7 1.88755 -0.490237
4.05947 4.7 -1.88755 -0.502745
4.05947 4.7 1.88755 -0.502745
3.93223 4.7 -1.88755 -0.515435
3.93223 4.7 1.88755 -0.515435
3.8077 4.7 -1.88755 -0.52831
3.8077 4.7 1.88755 -0.52831
3.68581 4.7 -1.88755 -0.541372
3.68581 4.7 1.88755 -0.541372
3.56652 4.7 -1.88755 -0.554622
3.56652 4.7 1.88755 -0.554622
3.44975 4.7 -1.88755 -0.568061
3.44975 4.7 1.88755 -0.568061
3.33547 4.7 -1.88755 -0.581691
3.33547 4.7 1.88755 -0.581691
3.22362 4.7 -1.88755 -0.595514
3.22362 4.7 1.88755 -0.595514
3.11414 4.7 -1.88755 -0.609527
3.11414 4.7 1.88755 -0.609527
3.00699 4.7 -1.88755 -0.623732
3.00699 4.7 1.88755 -0.623732
2.90212 4.7 -1.88755 -0.638129
2.90212 4.7 1.88755 -0.638129
2.79947 4.7 -1.88755 -0.652717
2.79947 4.7 1.88755 -0.652717
2.69901 4.7 -1.88755 -0.667491
2.69901 4.7 1.88755 -0.667491
2.60068 4.7 -1.88755 -0.682452
2.60068 4.7 1.88755 -0.682452
2.50444 4.7 -1.88755 -0.697597
2.50444 4.7 1.88755 -0.697597
2.41024 4.7 -1.88755 -0.712919
2.41024 4.7 1.88755 -0.712919
2.31805 4.7 -1.88755 -0.728413
2.31805 4.7 1.88755 -0.728413
2.22782 4.7 -1.88755 -0.744077
2.22782 4.7 1.88755 -0.744077
2.1395 4.7 -1.88755 -0.759898
2.1395 4.7 1.88755 -0.759898
2.05306 4.7 -1.88755 -0.775869
2.05306 4.7 1.88755 -0.775869
1.96845 4.7 -1.88755 -0.791981
1.96845 4.7 1.88755 -0.791981
1.88565 4.7 -1.88755 -0.808223
1.88565 4.7 1.88755 -0.808223
1.8046 4.7 -1.88755 -0.824577
1.8046 4.7 1.88755 -0.824577
1.72528 4.7 -1.88755 -0.841031
1.72528 4.7 1.88755 -0.841031
1.64764 4.7 -1.88755 -0.85757
1.64764 4.7 1.88755 -0.85757
1.57165 4.7 -1.88755 -0.874169
1.57165 4.7 1.88755 -0.874169
1.49727 4.7 -1.88755 -0.89081
1.49727 4.7 1.88755 -0.89081
1.42448 4.7 -1.88755 -0.907475
1.42448 4.7 1.88755 -0.907475
1.35323 4.7 -1.88755 -0.924131
1.35323 4.7 1.88755 -0.924131
1.2835 4.7 -1.88755 -0.940754
1.2835 4.7 1.88755 -0.940754
1.21524 4.7 -1.88755 -0.95732
1.21524 4.7 1.88755 -0.95732
1.14844 4.7 -1.88755 -0.973793
1.14844 4.7 1.88755 -0.973793
1.08306 4.7 -1.88755 -0.990142
1.08306 4.7 1.88755 -0.990142
1.01907 4.7 -1.88755 -1.00634
1.01907 4.7 1.88755 -1.00634
0.956432 4.7 -1.88755 -1.02236
0.956432 4.7 1.88755 -1.02236
0.89513 4.7 -1.88755 -1.03816
0.89513 4.7 1.88755 -1.03816
0.83513 4.7 -1.88755 -1.05369
0.83513 4.7 1.88755 -1.05369
0.775018 4.7 -1.88755 -1.06912
0.775018 4.7 1.88755 -1.06912
0.714907 4.7 -1.88755 -1.08462
0.714907 4.7 1.88755 -1.08462
0.654795 4.7 -1.88755 -1.10008
0.654795 4.7 1.88755 -1.10008
0.594684 4.7 -1.88755 -1.11548
0.594684 4.7 1.88755 -1.11548
0.534572 4.7 -1.88755 -1.13078
0.534572 4.7 1.88755 -1.13078
0.47446 4.7 -1.88755 -1.14593
0.47446 4.7 1.88755 -1.14593
0.414349 4.7 -1.88755 -1.16088
0.414349 4.7 1.88755 -1.16088
0.354237 4.7 -1.88755 -1.1756
0.354237 4.7 1.88755 -1.1756
0.294126 4.7 -1.88755 -1.19003
0.294126 4.7 1.88755 -1.19003
0.234014 4.7 -1.88755 -1.20413
0.234014 4.7 1.88755 -1.20413
0.173903 4.7 -1.88755 -1.21784
0.173903 4.7 1.88755 -1.21784
0.113791 4.7 -1.88755 -1.23114
0.113791 4.7 1.88755 -1.23114
0.0536798 4.7 -1.88755 -1.24397
0.0536798 4.7 1.88755 -1.24397
-0.00643172 4.7 -1.88755 -1.2563
-0.00643172 4.7 1.88755 -1.2563
-0.0665432 4.7 -1.88755 -1.26807
-0.0665432 4.7 1.88755 -1.26807
-0.126655 4.7 -1.88755 -1.27928
-0.126655 4.7 1.88755 -1.27928
-0.186766 4.7 -1.88755 -1.28987
-0.186766 4.7 1.88755 -1.28987
-0.246878 4.7 -1.88755 -1.29984
-0.246878 4.7 1.88755 -1.29984
-0.306989 4.7 -1.88755 -1.30914
-0.306989 4.7 1.88755 -1.30914
-0.367101 4.7 -1.88755 -1.31779
-0.367101 4.7 1.88755 -1.31779
-0.427212 4.7 -1.88755 -1.32578
-0.427212 4.7 1.88755 -1.32578
-0.487324 4.7 -1.88755 -1.33309
-0.487324 4.7 1.88755 -1.33309
-0.547435 4.7 -1.88755 -1.33974
-0.547435 4.7 1.88755 -1.33974
-0.607547 4.7 -1.88755 -1.34574
-0.607547 4.7 1.88755 -1.34574
-0.667658 4.7 -1.88755 -1.35111
-0.667658 4.7 1.88755 -1.35111
-0.72777 4.7 -1.88755 -1.35586
-0.72777 4.7 1.88755 -1.35586
-0.787882 4.7 -1.88755 -1.36004
-0.787882 4.7 1.88755 -1.36004
-0.847993 4.7 -1.88755 -1.3637
-0.847993 4.7 1.88755 -1.3637
-0.907993 4.7 -1.88755 -1.36685
-0.907993 4.7 1.88755 -1.36685
-0.970739 4.7 -1.88755 -1.36955
-0.970739 4.7 1.88755 -1.36955
-1.03636 4.7 -1.88755 -1.37191
-1.03636 4.7 1.88755 -1.37191
-1.10498 4.7 -1.88755 -1.37389
-1.10498 4.7 1.88755 -1.37389
-1.17674 4.7 -1.88755 -1.37549
-1.17674 4.7 1.88755 -1.37549
-1.25179 4.7 -1.88755 -1.37672
-1.25179 4.7 1.88755 -1.37672
-1.33028 4.7 -1.88755 -1.37757
-1.33028 4.7 1.88755 -1.37757
-1.41235 4.7 -1.88755 -1.37806
-1.41235 4.7 1.88755 -1.37806
-1.49818 4.7 -1.88755 -1.37821
-1.49818 4.7 1.88755 -1.37821
-1.58795 4.7 -1.88755 -1.37803
-1.58795 4.7 1.88755 -1.37803
-1.68182 4.7 -1.88755 -1.37754
-1.68182 4.7 1.88755 -1.37754
-1.77998 4.7 -1.88755 -1.37676
-1.77998 4.7 1.88755 -1.37676
-1.88265 4.7 -1.88755 -1.37572
-1.88265 4.7 1.88755 -1.37572
-1.99001 4.7 -1.88755 -1.37443
-1.99001 4.7 1.88755 -1.37443
-2.10228 4.7 -1.88755 -1.37292
-2.10228 4.7 1.88755 -1.37292
-2.2197 4.7 -1.88755 -1.3712
-2.2197 4.7 1.88755 -1.3712
-2.34248 4.7 -1.88755 -1.36928
-2.34248 4.7 1.88755 -1.36928
-2.47089 4.7 -1.88755 -1.36719
-2.47089 4.7 1.88755 -1.36719
-2.60518 4.7 -1.88755 -1.36493
-2.60518 4.7 1.88755 -1.36493
-2.74561 4.7 -1.88755 -1.36251
-2.74561 4.7 1.88755 -1.36251
-2.89248 4.7 -1.88755 -1.35993
-2.89248 4.7 1.88755 -1.35993
-3.04606 4.7 -1.88755 -1.35721
-3.04606 4.7 1.88755 -1.35721
-3.20668 4.7 -1.88755 -1.35433
-3.20668 4.7 1.88755 -1.35433
-3.37464 4.7 -1.88755 -1.3513
-3.37464 4.7 1.88755 -1.3513
-3.5503 4.7 -1.88755 -1.34812
-3.5503 4.7 1.88755 -1.34812
-3.73399 4.7 -1.88755 -1.34478
-3.73399 4.7 1.88755 -1.34478
-3.9261 4.7 -1.88755 -1.34129
-3.9261 4.7 1.88755 -1.34129
-4.127 4.7 -1.88755 -1.33763
-4.127 4.7 1.88755 -1.33763
-4.33709 4.7 -1.88755 -1.3338
-4.33709 4.7 1.88755 -1.3338
-4.5568 4.7 -1.88755 -1.32979
-4.5568 4.7 1.88755 -1.32979
-4.77651 4.7 -1.88755 -1.3257
-4.77651 4.7 1.88755 -1.3257
-4.99551 4.7 -1.88755 -1.3216
-4.99551 4.7 1.88755 -1.3216
-5.21381 4.7 -1.88755 -1.31753
-5.21381 4.7 1.88755 -1.31753
-5.43139 4.7 -1.88755 -1.31346
-5.43139 4.7 1.88755 -1.31346
-5.64827 4.7 -1.88755 -1.30941
-5.64827 4.7 1.88755 -1.30941
-5.86445 4.7 -1.88755 -1.30537
-5.86445 4.7 1.88755 -1.30537
-6.07993 4.7 -1.88755 -1.30135
-6.07993 4.7 1.88755 -1.30135
-6.29471 4.7 -1.88755 -1.29733
-6.29471 4.7 1.88755 -1.29733
-6.5088 4.7 -1.88755 -1.29333
-6.5088 4.7 1.88755 -1.29333
-6.72219 4.7 -1.88755 -1.28935
-6.72219 4.7 1.88755 -1.28935
-6.9349 4.7 -1.88755 -1.28538
-6.9349 4.7 1.88755 -1.28538
-7.14691 4.7 -1.88755 -1.28142
-7.14691 4.7 1.88755 -1.28142
-7.35824 4.7 -1.88755 -1.27747
-7.35824 4.7 1.88755 -1.27747
-7.56889 4.7 -1.88755 -1.27354
-7.56889 4.7 1.88755 -1.27354
-7.77885 4.7 -1.88755 -1.26962
-7.77885 4.7 1.88755 -1.26962
-7.98813 4.7 -1.88755 -1.26571
-7.98813 4.7 1.88755 -1.26571
-8.19674 4.7 -1.88755 -1.26181
-8.19674 4.7 1.88755 -1.26181
-8.40467 4.7 -1.88755 -1.25793
-8.40467 4.7 1.88755 -1.25793
-8.61193 4.7 -1.88755 -1.25406
-8.61193 4.7 1.88755 -1.25406
-8.81852 4.7 -1.88755 -1.2502
-8.81852 4.7 1.88755 -1.2502
-9.02444 4.7 -1.88755 -1.24636
-9.02444 4.7 1.88755 -1.24636
-9.2297 4.7 -1.88755 -1.24253
-9.2297 4.7 1.88755 -1.24253
-9.43428 4.7 -1.88755 -1.23871
-9.43428 4.7 1.88755 -1.23871
-9.63821 4.7 -1.88755 -1.23491
-9.63821 4.7 1.88755 -1.23491
-9.84148 4.7 -1.88755 -1.23111
-9.84148 4.7 1.88755 -1.23111
-10.0441 4.7 -1.88755 -1.22733
-10.0441 4.7 1.88755 -1.22733
-10.246 4.7 -1.88755 -1.22356
-10.246 4.7 1.88755 -1.22356
-10.4473 4.7 -1.88755 -1.21981
-10.4473 4.7 1.88755 -1.21981
-10.648 4.7 -1.88755 -1.21607
-10.648 4.7 1.88755 -1.21607
-10.848 4.7 1.88755 -1.21226
-10.848 4.7 -1.88755 -1.21226
-60.848 4.7 1.88755 -0.288311
-59.848 4.7 1.88755 -0.288311
-59.848 4.7 -1.88755 -0.288311
-60.848 4.7 -1.88755 -0.288311
-58.8506 4.7 1.88755 -0.306846
-58.8506 4.7 -1.88755 -0.306846
-57.8559 4.7 1.88755 -0.325346
-57.8559 4.7 -1.88755 -0.325346
-56.8639 4.7 1.88755 -0.343808
-56.8639 4.7 -1.88755 -0.343808
-55.8744 4.7 1.88755 -0.362231
-55.8744 4.7 -1.88755 -0.362231
-54.8876 4.7 1.88755 -0.380615
-54.8876 4.7 -1.88755 -0.380615
-53.9034 4.7 1.88755 -0.398958
-53.9034 4.7 -1.88755 -0.398958
-52.9218 4.7 1.88755 -0.417259
-52.9218 4.7 -1.88755 -0.417259
-51.9429 4.7 1.88755 -0.435518
-51.9429 4.7 -1.88755 -0.435518
-50.9665 4.7 1.88755 -0.453734
-50.9665 4.7 -1.88755 -0.453734
-49.9927 4.7 1.88755 -0.471905
-49.9927 4.7 -1.88755 -0.471905
-49.0215 4.7 1.88755 -0.490031
-49.0215 4.7 -1.88755 -0.490031
-48.0528 4.7 1.88755 -0.508112
-48.0528 4.7 -1.88755 -0.508112
-47.0867 4.7 1.88755 -0.526147
-47.0867 4.7 -1.88755 -0.526147
-46.1232 4.7 1.88755 -0.544136
-46.1232 4.7 -1.88755 -0.544136
-45.1622 4.7 1.88755 -0.562078
-45.1622 4.7 -1.88755 -0.562078
-44.2038 4.7 1.88755 -0.579974
-44.2038 4.7 -1.88755 -0.579974
-43.248 4.7 1.88755 -0.597822
-43.248 4.7 -1.88755 -0.597822
-42.2946 4.7 1.88755 -0.615623
-42.2946 4.7 -1.88755 -0.615623
-41.3438 4.7 1.88755 -0.633376
-41.3438 4.7 -1.88755 -0.633376
-40.3955 4.7 1.88755 -0.651081
-40.3955 4.7 -1.88755 -0.651081
-39.4497 4.7 1.88755 -0.66874
-39.4497 4.7 -1.88755 -0.66874
-38.5065 4.7 1.88755 -0.68635
-38.5065 4.7 -1.88755 -0.68635
-37.5657 4.7 1.88755 -0.703913
-37.5657 4.7 -1.88755 -0.703913
-36.6274 4.7 1.88755 -0.721428
-36.6274 4.7 -1.88755 -0.721428
-35.6916 4.7 1.88755 -0.738896
-35.6916 4.7 -1.88755 -0.738896
-34.7583 4.7 1.88755 -0.756317
-34.7583 4.7 -1.88755 -0.756317
-33.8275 4.7 1.88755 -0.773691
-33.8275 4.7 -1.88755 -0.773691
-32.8991 4.7 1.88755 -0.791017
-32.8991 4.7 -1.88755 -0.791017
-31.9732 4.7 1.88755 -0.808296
-31.9732 4.7 -1.88755 -0.808296
-31.0498 4.7 1.88755 -0.825529
-31.0498 4.7 -1.88755 -0.825529
-30.1288 4.7 1.88755 -0.842715
-30.1288 4.7 -1.88755 -0.842715
-29.2102 4.7 1.88755 -0.859855
-29.2102 4.7 -1.88755 -0.859855
-28.2941 4.7 1.88755 -0.876948
-28.2941 4.7 -1.88755 -0.876948
-27.3804 4.7 1.88755 -0.893996
-27.3804 4.7 -1.88755 -0.893996
-26.4667 4.7 1.88755 -0.911019
-26.4667 4.7 -1.88755 -0.911019
-25.5929 4.7 1.88755 -0.927671
-25.5929 4.7 -1.88755 -0.927671
-24.7573 4.7 1.88755 -0.943594
-24.7573 4.7 -1.88755 -0.943594
-23.9582 4.7 1.88755 -0.958821
-23.9582 4.7 -1.88755 -0.958821
-23.1941 4.7 1.88755 -0.973382
-23.1941 4.7 -1.88755 -0.973382
-22.4633 4.7 1.88755 -0.987306
-22.4633 4.7 -1.88755 -0.987306
-21.7645 4.7 1.88755 -1.00062
-21.7645 4.7 -1.88755 -1.00062
-21.0962 4.7 1.88755 -1.01336
-21.0962 4.7 -1.88755 -1.01336
-20.4571 4.7 1.88755 -1.02553
-20.4571 4.7 -1.88755 -1.02553
-19.8459 4.7 1.88755 -1.03718
-19.8459 4.7 -1.88755 -1.03718
-19.2615 4.7 1.88755 -1.04831
-19.2615 4.7 -1.88755 -1.04831
-18.7026 4.7 1.88755 -1.05896
-18.7026 4.7 -1.88755 -1.05896
-18.1681 4.7 1.88755 -1.06915
-18.1681 4.7 -1.88755 -1.06915
-17.6569 4.7 1.88755 -1.07888
-17.6569 4.7 -1.88755 -1.07888
-17.1681 4.7 1.88755 -1.0882
-17.1681 4.7 -1.88755 -1.0882
-16.7007 4.7 1.88755 -1.0971
-16.7007 4.7 -1.88755 -1.0971
-16.2537 4.7 1.88755 -1.10562
-16.2537 4.7 -1.88755 -1.10562
-15.8262 4.7 1.88755 -1.11376
-15.8262 4.7 -1.88755 -1.11376
-15.4174 4.7 1.88755 -1.12155
-15.4174 4.7 -1.88755 -1.12155
-15.0265 4.7 1.88755 -1.129
-15.0265 4.7 -1.88755 -1.129
-14.6526 4.7 1.88755 -1.13612
-14.6526 4.7 -1.88755 -1.13612
-14.2951 4.7 1.88755 -1.14293
-14.2951 4.7 -1.88755 -1.14293
-13.9532 4.7 1.88755 -1.14945
-13.9532 4.7 -1.88755 -1.14945
-13.6263 4.7 1.88755 -1.15568
-13.6263 4.7 -1.88755 -1.15568
-13.3136 4.7 1.88755 -1.16163
-13.3136 4.7 -1.88755 -1.16163
-13.0146 4.7 1.88755 -1.16733
-13.0146 4.7 -1.88755 -1.16733
-12.7287 4.7 1.88755 -1.17278
-12.7287 4.7 -1.88755 -1.17278
-12.4552 4.7 1.88755 -1.17799
-12.4552 4.7 -1.88755 -1.17799
-12.1937 4.7 1.88755 -1.18297
-12.1937 4.7 -1.88755 -1.18297
-11.9437 4.7 1.88755 -1.18773
-11.9437 4.7 -1.88755 -1.18773
-11.7045 4.7 1.88755 -1.19229
-11.7045 4.7 -1.88755 -1.19229
-11.4758 4.7 1.88755 -1.19665
-11.4758 4.7 -1.88755 -1.19665
-11.2571 4.7 1.88755 -1.20082
-11.2571 4.7 -1.88755 -1.20082
-11.048 4.7 1.88755 -1.20479
-11.048 4.7 -1.88755 -1.20479
-110.848 4.7 1.88755 0.891285
-109.848 4.7 1.88755 0.891285
-109.848 4.7 -1.88755 0.891285
-110.848 4.7 -1.88755 0.891285
-108.848 4.7 1.88755 0.617313
-108.848 4.7 -1.88755 0.617313
-107.848 4.7 1.88755 0.663696
-107.848 4.7 -1.88755 0.663696
-106.848 4.7 1.88755 0.617689
-106.848 4.7 -1.88755 0.617689
-105.848 4.7 1.88755 0.600966
-105.848 4.7 -1.88755 0.600966
-104.848 4.7 1.88755 0.574133
-104.848 4.7 -1.88755 0.574133
-103.848 4.7 1.88755 0.551325
-103.848 4.7 -1.88755 0.551325
-102.848 4.7 1.88755 0.528864
-102.848 4.7 -1.88755 0.528864
-101.848 4.7 1.88755 0.506785
-101.848 4.7 -1.88755 0.506785
-100.848 4.7 1.88755 0.485247
-100.848 4.7 -1.88755 0.485247
-99.848 4.7 1.88755 0.464083
-99.848 4.7 -1.88755 0.464083
-98.848 4.7 1.88755 0.443253
-98.848 4.7 -1.88755 0.443253
-97.848 4.7 1.88755 0.422726
-97.848 4.7 -1.88755 0.422726
-96.848 4.7 1.88755 0.402459
-96.848 4.7 -1.88755 0.402459
-95.848 4.7 1.88755 0.382426
-95.848 4.7 -1.88755 0.382426
-94.848 4.7 1.88755 0.362599
-94.848 4.7 -1.88755 0.362599
-93.848 4.7 1.88755 0.342959
-93.848 4.7 -1.88755 0.342959
-92.848 4.7 1.88755 0.323486
-92.848 4.7 -1.88755 0.323486
-91.848 4.7 1.88755 0.304163
-91.848 4.7 -1.88755 0.304163
-90.848 4.7 1.88755 0.284976
-90.848 4.7 -1.88755 0.284976
-89.848 4.7 1.88755 0.265912
-89.848 4.7 -1.88755 0.265912
-88.848 4.7 1.88755 0.246959
-88.848 4.7 -1.88755 0.246959
-87.848 4.7 1.88755 0.228105
-87.848 4.7 -1.88755 0.228105
-86.848 4.7 1.88755 0.20934
-86.848 4.7 -1.88755 0.20934
-85.848 4.7 1.88755 0.190656
-85.848 4.7 -1.88755 0.190656
-84.848 4.7 1.88755 0.172042
-84.848 4.7 -1.88755 0.172042
-83.848 4.7 1.88755 0.153489
-83.848 4.7 -1.88755 0.153489
-82.848 4.7 1.88755 0.13499
-82.848 4.7 -1.88755 0.13499
-81.848 4.7 1.88755 0.116537
-81.848 4.7 -1.88755 0.116537
-80.848 4.7 1.88755 0.0981232
-80.848 4.7 -1.88755 0.0981232
-79.848 4.7 1.88755 0.0797402
-79.848 4.7 -1.88755 0.0797402
-78.848 4.7 1.88755 0.0613818
-78.848 4.7 -1.88755 0.0613818
-77.848 4.7 1.88755 0.0430416
-77.848 4.7 -1.88755 0.0430416
-76.848 4.7 1.88755 0.0247136
-76.848 4.7 -1.88755 0.0247136
-75.848 4.7 1.88755 0.00639225
-75.848 4.7 -1.88755 0.00639225
-74.848 4.7 1.88755 -0.0119273
-74.848 4.7 -1.88755 -0.0119273
-73.848 4.7 1.88755 -0.0302496
-73.848 4.7 -1.88755 -0.0302496
-72.848 4.7 1.88755 -0.0485786
-72.848 4.7 -1.88755 -0.0485786
-71.848 4.7 1.88755 -0.0669178