# wallShearStress  POINT_DATA 994
# x y z  wallShearStress_x wallShearStress_y wallShearStress_z
76.848 3.84014e-15 1.88755 -0.000493382 -6.48607e-09 0
76.848 3.84014e-15 -1.88755 -0.000493382 -6.48607e-09 0
77.848 3.89022e-15 -1.88755 -0.000493382 -6.48607e-09 0
77.848 3.89022e-15 1.88755 -0.000493382 -6.48607e-09 0
75.8596 3.79065e-15 1.88755 -0.000496571 -1.32128e-08 -7.77877e-62
75.8596 3.79065e-15 -1.88755 -0.000496571 -1.32128e-08 -7.77877e-62
74.8826 3.74172e-15 1.88755 -0.000498841 -1.11308e-08 -5.25046e-27
74.8826 3.74172e-15 -1.88755 -0.000498841 -1.11308e-08 -5.25046e-27
73.9169 3.69337e-15 1.88755 -0.000501475 -1.2277e-08 7.31214e-27
73.9169 3.69337e-15 -1.88755 -0.000501475 -1.2277e-08 7.31214e-27
72.9624 3.64557e-15 1.88755 -0.000503853 -1.2743e-08 9.47089e-27
72.9624 3.64557e-15 -1.88755 -0.000503853 -1.2743e-08 9.47089e-27
72.019 3.59833e-15 1.88755 -0.000506764 -1.3243e-08 1.16348e-26
72.019 3.59833e-15 -1.88755 -0.000506764 -1.3243e-08 1.16348e-26
71.0865 3.55163e-15 1.88755 -0.000509238 -1.3891e-08 -3.11151e-61
71.0865 3.55163e-15 -1.88755 -0.000509238 -1.3891e-08 -3.11151e-61
70.1648 3.50547e-15 1.88755 -0.000512348 -1.43218e-08 0
70.1648 3.50547e-15 -1.88755 -0.000512348 -1.43218e-08 0
69.2537 3.45985e-15 1.88755 -0.000514949 -1.51052e-08 5.70367e-45
69.2537 3.45985e-15 -1.88755 -0.000514949 -1.51052e-08 5.70367e-45
68.3532 3.41476e-15 1.88755 -0.000518255 -1.55296e-08 4.13197e-26
68.3532 3.41476e-15 -1.88755 -0.000518255 -1.55296e-08 4.13197e-26
67.4632 3.37019e-15 1.88755 -0.000521003 -1.63817e-08 -6.69463e-37
67.4632 3.37019e-15 -1.88755 -0.000521003 -1.63817e-08 -6.69463e-37
66.5834 3.32613e-15 1.88755 -0.000524513 -1.68693e-08 0
66.5834 3.32613e-15 -1.88755 -0.000524513 -1.68693e-08 0
65.7138 3.28259e-15 1.88755 -0.000527422 -1.78229e-08 -5.56099e-26
65.7138 3.28259e-15 -1.88755 -0.000527422 -1.78229e-08 -5.56099e-26
64.8543 3.23955e-15 1.88755 -0.000531152 -1.83356e-08 0
64.8543 3.23955e-15 -1.88755 -0.000531152 -1.83356e-08 0
64.0048 3.19701e-15 1.88755 -0.000534241 -1.94855e-08 6.55205e-26
64.0048 3.19701e-15 -1.88755 -0.000534241 -1.94855e-08 6.55205e-26
63.1651 3.15496e-15 1.88755 -0.000538222 -2.00729e-08 7.0601e-26
63.1651 3.15496e-15 -1.88755 -0.000538222 -2.00729e-08 7.0601e-26
62.3351 3.11339e-15 1.88755 -0.000541502 -2.08715e-08 7.57408e-26
62.3351 3.11339e-15 -1.88755 -0.000541502 -2.08715e-08 7.57408e-26
61.5147 3.07231e-15 1.88755 -0.000545635 -2.22663e-08 0
61.5147 3.07231e-15 -1.88755 -0.000545635 -2.22663e-08 0
60.7038 3.03171e-15 1.88755 -0.000549314 -2.27303e-08 1.059e-47
60.7038 3.03171e-15 -1.88755 -0.000549314 -2.27303e-08 1.059e-47
59.9024 2.99157e-15 1.88755 -0.000553525 -2.42773e-08 0
59.9024 2.99157e-15 -1.88755 -0.000553525 -2.42773e-08 0
59.1102 2.9519e-15 1.88755 -0.000557596 -2.50516e-08 1.41392e-36
59.1102 2.9519e-15 -1.88755 -0.000557596 -2.50516e-08 1.41392e-36
58.3271 2.91269e-15 1.88755 -0.000561979 -2.64993e-08 -1.02729e-25
58.3271 2.91269e-15 -1.88755 -0.000561979 -2.64993e-08 -1.02729e-25
57.5532 2.87393e-15 1.88755 -0.0005664 -2.7617e-08 0
57.5532 2.87393e-15 -1.88755 -0.0005664 -2.7617e-08 0
56.7882 2.83562e-15 1.88755 -0.000571027 -2.90685e-08 1.57866e-47
56.7882 2.83562e-15 -1.88755 -0.000571027 -2.90685e-08 1.57866e-47
56.032 2.79776e-15 1.88755 -0.000575785 -3.04539e-08 1.74507e-36
56.032 2.79776e-15 -1.88755 -0.000575785 -3.04539e-08 1.74507e-36
55.2846 2.76033e-15 1.88755 -0.000580712 -3.19838e-08 1.25829e-25
55.2846 2.76033e-15 -1.88755 -0.000580712 -3.19838e-08 1.25829e-25
54.5459 2.72334e-15 1.88755 -0.000585811 -3.36358e-08 -1.31815e-25
54.5459 2.72334e-15 -1.88755 -0.000585811 -3.36358e-08 -1.31815e-25
53.8157 2.68678e-15 1.88755 -0.000591071 -3.53233e-08 0
53.8157 2.68678e-15 -1.88755 -0.000591071 -3.53233e-08 0
53.094 2.65063e-15 1.88755 -0.000596525 -3.71884e-08 -1.44058e-25
53.094 2.65063e-15 -1.88755 -0.000596525 -3.71884e-08 -1.44058e-25
52.3806 2.61491e-15 1.88755 -0.000602154 -3.90671e-08 2.49362e-44
52.3806 2.61491e-15 -1.88755 -0.000602154 -3.90671e-08 2.49362e-44
51.6755 2.5796e-15 1.88755 -0.000607989 -4.12114e-08 0
51.6755 2.5796e-15 -1.88755 -0.000607989 -4.12114e-08 0
50.9785 2.5447e-15 1.88755 -0.000614009 -4.3332e-08 -1.63088e-25
50.9785 2.5447e-15 -1.88755 -0.000614009 -4.3332e-08 -1.63088e-25
50.2897 2.51021e-15 1.88755 -0.000620248 -4.57076e-08 -1.69606e-25
50.2897 2.51021e-15 -1.88755 -0.000620248 -4.57076e-08 -1.69606e-25
49.6088 2.47611e-15 1.88755 -0.000626688 -4.8073e-08 1.76222e-25
49.6088 2.47611e-15 -1.88755 -0.000626688 -4.8073e-08 1.76222e-25
48.9358 2.44241e-15 1.88755 -0.000633354 -5.07833e-08 -1.82914e-25
48.9358 2.44241e-15 -1.88755 -0.000633354 -5.07833e-08 -1.82914e-25
48.2705 2.4091e-15 1.88755 -0.000640229 -5.34233e-08 3.39521e-44
48.2705 2.4091e-15 -1.88755 -0.000640229 -5.34233e-08 3.39521e-44
47.613 2.37617e-15 1.88755 -0.000647339 -5.63808e-08 0
47.613 2.37617e-15 -1.88755 -0.000647339 -5.63808e-08 0
46.9631 2.34362e-15 1.88755 -0.000654669 -5.93059e-08 0
46.9631 2.34362e-15 -1.88755 -0.000654669 -5.93059e-08 0
46.3207 2.31146e-15 1.88755 -0.000662237 -6.26424e-08 -2.10569e-25
46.3207 2.31146e-15 -1.88755 -0.000662237 -6.26424e-08 -2.10569e-25
45.6858 2.27966e-15 1.88755 -0.000670024 -6.58499e-08 -3.2905e-45
45.6858 2.27966e-15 -1.88755 -0.000670024 -6.58499e-08 -3.2905e-45
45.0582 2.24823e-15 1.88755 -0.000678053 -6.94336e-08 -2.24898e-25
45.0582 2.24823e-15 -1.88755 -0.000678053 -6.94336e-08 -2.24898e-25
44.4379 2.21717e-15 1.88755 -0.000686303 -7.29428e-08 1.68943e-36
44.4379 2.21717e-15 -1.88755 -0.000686303 -7.29428e-08 1.68943e-36
43.8248 2.18647e-15 1.88755 -0.00069479 -7.69357e-08 -2.39546e-25
43.8248 2.18647e-15 -1.88755 -0.00069479 -7.69357e-08 -2.39546e-25
43.2187 2.15612e-15 1.88755 -0.000703488 -8.0731e-08 2.46982e-25
43.2187 2.15612e-15 -1.88755 -0.000703488 -8.0731e-08 2.46982e-25
42.6197 2.12612e-15 1.88755 -0.000712414 -8.49891e-08 -1.85158e-36
42.6197 2.12612e-15 -1.88755 -0.000712414 -8.49891e-08 -1.85158e-36
42.0276 2.09647e-15 1.88755 -0.000721541 -8.91354e-08 0
42.0276 2.09647e-15 -1.88755 -0.000721541 -8.91354e-08 0
41.4424 2.06717e-15 1.88755 -0.000730879 -9.39478e-08 -5.01403e-47
41.4424 2.06717e-15 -1.88755 -0.000730879 -9.39478e-08 -5.01403e-47
40.8639 2.0382e-15 1.88755 -0.000740394 -9.84378e-08 -9.95682e-60
40.8639 2.0382e-15 -1.88755 -0.000740394 -9.84378e-08 -9.95682e-60
40.2922 2.00957e-15 1.88755 -0.000750101 -1.03591e-07 -2.85064e-25
40.2922 2.00957e-15 -1.88755 -0.000750101 -1.03591e-07 -2.85064e-25
39.727 1.98127e-15 1.88755 -0.000759963 -1.08635e-07 1.46417e-25
39.727 1.98127e-15 -1.88755 -0.000759963 -1.08635e-07 1.46417e-25
39.1685 1.9533e-15 1.88755 -0.000769989 -1.14583e-07 9.95682e-60
39.1685 1.9533e-15 -1.88755 -0.000769989 -1.14583e-07 9.95682e-60
38.6163 1.92565e-15 1.88755 -0.000780136 -1.20244e-07 -1.54206e-25
38.6163 1.92565e-15 -1.88755 -0.000780136 -1.20244e-07 -1.54206e-25
38.0706 1.89832e-15 1.88755 -0.000790413 -1.26852e-07 1.58103e-25
38.0706 1.89832e-15 -1.88755 -0.000790413 -1.26852e-07 1.58103e-25
37.5312 1.87131e-15 1.88755 -0.000800777 -1.33455e-07 1.62006e-25
37.5312 1.87131e-15 -1.88755 -0.000800777 -1.33455e-07 1.62006e-25
36.998 1.84461e-15 1.88755 -0.000811234 -1.41395e-07 2.41387e-36
36.998 1.84461e-15 -1.88755 -0.000811234 -1.41395e-07 2.41387e-36
36.4711 1.81822e-15 1.88755 -0.000821728 -1.49136e-07 0
36.4711 1.81822e-15 -1.88755 -0.000821728 -1.49136e-07 0
35.9502 1.79214e-15 1.88755 -0.000832266 -1.58657e-07 0
35.9502 1.79214e-15 -1.88755 -0.000832266 -1.58657e-07 0
35.4353 1.76636e-15 1.88755 -0.000842789 -1.67979e-07 1.7734e-25
35.4353 1.76636e-15 -1.88755 -0.000842789 -1.67979e-07 1.7734e-25
34.9264 1.74087e-15 1.88755 -0.000853293 -1.79005e-07 4.97841e-60
34.9264 1.74087e-15 -1.88755 -0.000853293 -1.79005e-07 4.97841e-60
34.4234 1.71568e-15 1.88755 -0.000863725 -1.90579e-07 1.34384e-36
34.4234 1.71568e-15 -1.88755 -0.000863725 -1.90579e-07 1.34384e-36
33.9204 1.6905e-15 1.88755 -0.000874145 -2.04642e-07 1.35419e-36
33.9204 1.6905e-15 -1.88755 -0.000874145 -2.04642e-07 1.35419e-36
33.4352 1.6662e-15 1.88755 -0.000884346 -2.18069e-07 3.53708e-47
33.4352 1.6662e-15 -1.88755 -0.000884346 -2.18069e-07 3.53708e-47
32.9672 1.64276e-15 1.88755 -0.000894134 -2.33885e-07 0
32.9672 1.64276e-15 -1.88755 -0.000894134 -2.33885e-07 0
32.5157 1.62016e-15 1.88755 -0.000903459 -2.49452e-07 -1.52963e-36
32.5157 1.62016e-15 -1.88755 -0.000903459 -2.49452e-07 -1.52963e-36
32.0803 1.59835e-15 1.88755 -0.000912319 -2.67742e-07 -2.18394e-25
32.0803 1.59835e-15 -1.88755 -0.000912319 -2.67742e-07 -2.18394e-25
31.6602 1.57731e-15 1.88755 -0.000920659 -2.85051e-07 -1.64894e-36
31.6602 1.57731e-15 -1.88755 -0.000920659 -2.85051e-07 -1.64894e-36
31.255 1.55702e-15 1.88755 -0.000928477 -3.04729e-07 2.34859e-25
31.255 1.55702e-15 -1.88755 -0.000928477 -3.04729e-07 2.34859e-25
30.8642 1.53745e-15 1.88755 -0.000935727 -3.23527e-07 -7.24808e-44
30.8642 1.53745e-15 -1.88755 -0.000935727 -3.23527e-07 -7.24808e-44
30.4871 1.51857e-15 1.88755 -0.000942415 -3.4505e-07 -1.82868e-36
30.4871 1.51857e-15 -1.88755 -0.000942415 -3.4505e-07 -1.82868e-36
30.1235 1.50036e-15 1.88755 -0.000948492 -3.64501e-07 4.23254e-47
30.1235 1.50036e-15 -1.88755 -0.000948492 -3.64501e-07 4.23254e-47
29.7727 1.48279e-15 1.88755 -0.000953963 -3.86757e-07 4.90453e-44
29.7727 1.48279e-15 -1.88755 -0.000953963 -3.86757e-07 4.90453e-44
29.4343 1.46585e-15 1.88755 -0.000958788 -4.06118e-07 1.37814e-25
29.4343 1.46585e-15 -1.88755 -0.000958788 -4.06118e-07 1.37814e-25
29.1079 1.4495e-15 1.88755 -0.000962969 -4.27401e-07 0
29.1079 1.4495e-15 -1.88755 -0.000962969 -4.27401e-07 0
28.793 1.43374e-15 1.88755 -0.000966484 -4.45907e-07 1.0597e-36
28.793 1.43374e-15 -1.88755 -0.000966484 -4.45907e-07 1.0597e-36
28.4893 1.41853e-15 1.88755 -0.000969339 -4.66354e-07 -1.49416e-25
28.4893 1.41853e-15 -1.88755 -0.000969339 -4.66354e-07 -1.49416e-25
28.1964 1.40386e-15 1.88755 -0.000971514 -4.82788e-07 1.11414e-36
28.1964 1.40386e-15 -1.88755 -0.000971514 -4.82788e-07 1.11414e-36
27.9138 1.38971e-15 1.88755 -0.000973016 -5.00873e-07 0
27.9138 1.38971e-15 -1.88755 -0.000973016 -5.00873e-07 0
27.6412 1.37606e-15 1.88755 -0.000973834 -5.14231e-07 -1.60158e-25
27.6412 1.37606e-15 -1.88755 -0.000973834 -5.14231e-07 -1.60158e-25
27.3783 1.36289e-15 1.88755 -0.000973972 -5.2891e-07 1.63475e-25
27.3783 1.36289e-15 -1.88755 -0.000973972 -5.2891e-07 1.63475e-25
27.1246 1.35019e-15 1.88755 -0.000973433 -5.38828e-07 -9.95682e-60
27.1246 1.35019e-15 -1.88755 -0.000973433 -5.38828e-07 -9.95682e-60
26.88 1.33794e-15 1.88755 -0.000972227 -5.49718e-07 0
26.88 1.33794e-15 -1.88755 -0.000972227 -5.49718e-07 0
26.644 1.32612e-15 1.88755 -0.000970377 -5.56619e-07 -9.95682e-60
26.644 1.32612e-15 -1.88755 -0.000970377 -5.56619e-07 -9.95682e-60
26.4164 1.31472e-15 1.88755 -0.000967872 -5.60203e-07 8.76e-26
26.4164 1.31472e-15 -1.88755 -0.000967872 -5.60203e-07 8.76e-26
26.1968 1.30373e-15 1.88755 -0.000964746 -5.63784e-07 9.95682e-60
26.1968 1.30373e-15 -1.88755 -0.000964746 -5.63784e-07 9.95682e-60
25.985 1.29312e-15 1.88755 -0.000961016 -5.63123e-07 1.14672e-47
25.985 1.29312e-15 -1.88755 -0.000961016 -5.63123e-07 1.14672e-47
25.7807 1.28289e-15 1.88755 -0.000956698 -5.608e-07 0
25.7807 1.28289e-15 -1.88755 -0.000956698 -5.608e-07 0
25.5836 1.27302e-15 1.88755 -0.000951811 -5.55223e-07 -1.13966e-47
25.5836 1.27302e-15 -1.88755 -0.000951811 -5.55223e-07 -1.13966e-47
25.3935 1.2635e-15 1.88755 -0.000946391 -5.49315e-07 0
25.3935 1.2635e-15 -1.88755 -0.000946391 -5.49315e-07 0
25.2101 1.25432e-15 1.88755 -0.00094046 -5.38851e-07 -3.40084e-37
25.2101 1.25432e-15 -1.88755 -0.00094046 -5.38851e-07 -3.40084e-37
25.0332 1.24546e-15 1.88755 -0.000934035 -5.26871e-07 3.42187e-37
25.0332 1.24546e-15 -1.88755 -0.000934035 -5.26871e-07 3.42187e-37
24.8626 1.23692e-15 1.88755 -0.000927158 -5.14135e-07 0
24.8626 1.23692e-15 -1.88755 -0.000927158 -5.14135e-07 0
24.698 1.22867e-15 1.88755 -0.000919852 -4.97662e-07 4.74056e-26
24.698 1.22867e-15 -1.88755 -0.000919852 -4.97662e-07 4.74056e-26
24.5393 1.22072e-15 1.88755 -0.000912165 -4.79751e-07 3.45708e-37
24.5393 1.22072e-15 -1.88755 -0.000912165 -4.79751e-07 3.45708e-37
24.3861 1.21306e-15 1.88755 -0.000904083 -4.58821e-07 4.75294e-26
24.3861 1.21306e-15 -1.88755 -0.000904083 -4.58821e-07 4.75294e-26
24.2384 1.20566e-15 1.88755 -0.000895674 -4.38044e-07 -3.85849e-44
24.2384 1.20566e-15 -1.88755 -0.000895674 -4.38044e-07 -3.85849e-44
24.0959 1.19852e-15 1.88755 -0.00088698 -4.14409e-07 3.44848e-37
24.0959 1.19852e-15 -1.88755 -0.00088698 -4.14409e-07 3.44848e-37
23.9585 1.19164e-15 1.88755 -0.000877982 -3.87887e-07 3.43548e-37
23.9585 1.19164e-15 -1.88755 -0.000877982 -3.87887e-07 3.43548e-37
23.8259 1.185e-15 1.88755 -0.000868741 -3.6234e-07 -3.41721e-37
23.8259 1.185e-15 -1.88755 -0.000868741 -3.6234e-07 -3.41721e-37
23.698 1.1786e-15 1.88755 -0.00085929 -3.34591e-07 -1.81114e-71
23.698 1.1786e-15 -1.88755 -0.00085929 -3.34591e-07 -1.81114e-71
23.5746 1.17242e-15 1.88755 -0.000849647 -3.05062e-07 -1.68243e-37
23.5746 1.17242e-15 -1.88755 -0.000849647 -3.05062e-07 -1.68243e-37
23.4557 1.16646e-15 1.88755 -0.000839829 -2.75148e-07 1.66532e-37
23.4557 1.16646e-15 -1.88755 -0.000839829 -2.75148e-07 1.66532e-37
23.3409 1.16071e-15 1.88755 -0.000829885 -2.45107e-07 0
23.3409 1.16071e-15 -1.88755 -0.000829885 -2.45107e-07 0
23.2302 1.15517e-15 1.88755 -0.000819817 -2.13214e-07 2.22937e-26
23.2302 1.15517e-15 -1.88755 -0.000819817 -2.13214e-07 2.22937e-26
23.1234 1.14982e-15 1.88755 -0.000809662 -1.81403e-07 2.1945e-26
23.1234 1.14982e-15 -1.88755 -0.000809662 -1.81403e-07 2.1945e-26
23.0203 1.14466e-15 1.88755 -0.00079943 -1.48736e-07 0
23.0203 1.14466e-15 -1.88755 -0.00079943 -1.48736e-07 0
22.921 1.13969e-15 1.88755 -0.000789148 -1.15728e-07 -1.53861e-37
22.921 1.13969e-15 -1.88755 -0.000789148 -1.15728e-07 -1.53861e-37
22.8251 1.13489e-15 1.88755 -0.000778826 -8.23933e-08 0
22.8251 1.13489e-15 -1.88755 -0.000778826 -8.23933e-08 0
22.7326 1.13026e-15 1.88755 -0.000768484 -4.8677e-08 2.01688e-26
22.7326 1.13026e-15 -1.88755 -0.000768484 -4.8677e-08 2.01688e-26
22.6435 1.12579e-15 1.88755 -0.000758132 -1.50791e-08 -1.96289e-26
22.6435 1.12579e-15 -1.88755 -0.000758132 -1.50791e-08 -1.96289e-26
22.5574 1.12148e-15 1.88755 -0.000747779 1.91661e-08 -6.93634e-38
22.5574 1.12148e-15 -1.88755 -0.000747779 1.91661e-08 -6.93634e-38
22.4744 1.11733e-15 1.88755 -0.000737429 5.50654e-08 9.21711e-27
22.4744 1.11733e-15 -1.88755 -0.000737429 5.50654e-08 9.21711e-27
22.3944 1.11332e-15 1.88755 -0.000727072 9.11631e-08 0
22.3944 1.11332e-15 -1.88755 -0.000727072 9.11631e-08 0
22.3172 1.10945e-15 1.88755 -0.000716712 1.25124e-07 0
22.3172 1.10945e-15 -1.88755 -0.000716712 1.25124e-07 0
22.2427 1.10572e-15 1.88755 -0.000706372 1.58694e-07 -1.2978e-44
22.2427 1.10572e-15 -1.88755 -0.000706372 1.58694e-07 -1.2978e-44
22.1708 1.10212e-15 1.88755 -0.000696022 1.94526e-07 -7.7964e-27
22.1708 1.10212e-15 -1.88755 -0.000696022 1.94526e-07 -7.7964e-27
22.1015 1.09865e-15 1.88755 -0.000685616 2.31704e-07 7.39531e-27
22.1015 1.09865e-15 -1.88755 -0.000685616 2.31704e-07 7.39531e-27
22.0347 1.0953e-15 1.88755 -0.000675078 2.76077e-07 0
22.0347 1.0953e-15 -1.88755 -0.000675078 2.76077e-07 0
21.9702 1.09208e-15 1.88755 -0.000664381 3.20381e-07 -6.33728e-49
21.9702 1.09208e-15 -1.88755 -0.000664381 3.20381e-07 -6.33728e-49
21.908 1.08896e-15 1.88755 -0.000653318 3.91249e-07 0
21.908 1.08896e-15 -1.88755 -0.000653318 3.91249e-07 0
21.848 1.73472e-15 1.88755 -0.000639531 1.19851e-06 0
21.848 1.73472e-15 -1.88755 -0.000639531 1.19851e-06 0
21.7876 0.000188157 1.88755 -0.000621536 3.49852e-06 -1.24013e-24
21.7876 0.000188157 -1.88755 -0.000621536 3.49852e-06 -1.24013e-24
21.7272 0.00075262 1.88755 -0.000605652 6.78424e-06 -5.47786e-28
21.7272 0.00075262 -1.88755 -0.000605652 6.78424e-06 -5.47786e-28
21.6668 0.00169337 1.88755 -0.000593569 1.02732e-05 3.03227e-24
21.6668 0.00169337 -1.88755 -0.000593569 1.02732e-05 3.03227e-24
21.6063 0.00301036 1.88755 -0.00058254 1.37378e-05 3.94996e-24
21.6063 0.00301036 -1.88755 -0.00058254 1.37378e-05 3.94996e-24
21.546 0.00470355 1.88755 -0.000572534 1.71448e-05 5.27179e-28
21.546 0.00470355 -1.88755 -0.000572534 1.71448e-05 5.27179e-28
21.4856 0.00677288 1.88755 -0.000563208 2.04665e-05 8.39523e-25
21.4856 0.00677288 -1.88755 -0.000563208 2.04665e-05 8.39523e-25
21.4252 0.00921825 1.88755 -0.000554489 2.37122e-05 5.3335e-24
21.4252 0.00921825 -1.88755 -0.000554489 2.37122e-05 5.3335e-24
21.3649 0.0120396 1.88755 -0.000546287 2.68815e-05 9.99089e-24
21.3649 0.0120396 -1.88755 -0.000546287 2.68815e-05 9.99089e-24
21.3045 0.0152368 1.88755 -0.00053856 2.99832e-05 5.04959e-26
21.3045 0.0152368 -1.88755 -0.00053856 2.99832e-05 5.04959e-26
21.2442 0.0188097 1.88755 -0.000531275 3.30197e-05 1.96077e-23
21.2442 0.0188097 -1.88755 -0.000531275 3.30197e-05 1.96077e-23
21.1839 0.0227581 1.88755 -0.000524412 3.60005e-05 -5.87829e-26
21.1839 0.0227581 -1.88755 -0.000524412 3.60005e-05 -5.87829e-26
21.1237 0.0270821 1.88755 -0.000517954 3.89299e-05 7.84529e-27
21.1237 0.0270821 -1.88755 -0.000517954 3.89299e-05 7.84529e-27
21.0634 0.0317812 1.88755 -0.00051189 4.18171e-05 6.96141e-23
21.0634 0.0317812 -1.88755 -0.00051189 4.18171e-05 6.96141e-23
21.0032 0.0368555 1.88755 -0.000506212 4.46657e-05 8.01136e-23
21.0032 0.0368555 -1.88755 -0.000506212 4.46657e-05 8.01136e-23
20.9431 0.0423046 1.88755 -0.000500919 4.74858e-05 9.06916e-23
20.9431 0.0423046 -1.88755 -0.000500919 4.74858e-05 9.06916e-23
20.8829 0.0481284 1.88755 -0.00049601 5.02824e-05 2.03263e-22
20.8829 0.0481284 -1.88755 -0.00049601 5.02824e-05 2.03263e-22
20.8228 0.0543267 1.88755 -0.000491483 5.30661e-05 1.12633e-22
20.8228 0.0543267 -1.88755 -0.000491483 5.30661e-05 1.12633e-22
20.7628 0.0608992 1.88755 -0.000487343 5.58411e-05 -2.72301e-27
20.7628 0.0608992 -1.88755 -0.000487343 5.58411e-05 -2.72301e-27
20.7027 0.0678456 1.88755 -0.000483595 5.86199e-05 3.16856e-26
20.7027 0.0678456 -1.88755 -0.000483595 5.86199e-05 3.16856e-26
20.6428 0.0751657 1.88755 -0.000480245 6.14068e-05 -1.8671e-26
20.6428 0.0751657 -1.88755 -0.000480245 6.14068e-05 -1.8671e-26
20.5828 0.0828592 1.88755 -0.000477314 6.42156e-05 1.33777e-25
20.5828 0.0828592 -1.88755 -0.000477314 6.42156e-05 1.33777e-25
20.523 0.0909258 1.88755 -0.000474823 6.70537e-05 0
20.523 0.0909258 -1.88755 -0.000474823 6.70537e-05 0
20.4631 0.0993652 1.88755 -0.000472806 6.99384e-05 -5.75766e-40
20.4631 0.0993652 -1.88755 -0.000472806 6.99384e-05 -5.75766e-40
20.4034 0.108177 1.88755 -0.000471302 7.28825e-05 -2.47374e-26
20.4034 0.108177 -1.88755 -0.000471302 7.28825e-05 -2.47374e-26
20.3437 0.117361 1.88755 -0.000470391 7.59074e-05 4.18905e-22
20.3437 0.117361 -1.88755 -0.000470391 7.59074e-05 4.18905e-22
20.284 0.126917 1.88755 -0.000470175 7.90305e-05 -4.45392e-22
20.284 0.126917 -1.88755 -0.000470175 7.90305e-05 -4.45392e-22
20.2244 0.136844 1.88755 -0.000470713 8.2311e-05 7.41101e-27
20.2244 0.136844 -1.88755 -0.000470713 8.2311e-05 7.41101e-27
20.1649 0.147142 1.88755 -0.000474123 8.54624e-05 -7.42764e-27
20.1649 0.147142 -1.88755 -0.000474123 8.54624e-05 -7.42764e-27
20.1058 0.157553 1.88755 -0.000481314 8.78401e-05 1.65546e-26
20.1058 0.157553 -1.88755 -0.000481314 8.78401e-05 1.65546e-26
20.0454 0.168194 1.88755 -0.000487714 8.92041e-05 -5.44643e-22
20.0454 0.168194 -1.88755 -0.000487714 8.92041e-05 -5.44643e-22
19.9837 0.17907 1.88755 -0.00049175 9.00399e-05 5.58369e-22
19.9837 0.17907 -1.88755 -0.00049175 9.00399e-05 5.58369e-22
19.9206 0.190185 1.88755 -0.000495336 9.07425e-05 -2.60583e-39
19.9206 0.190185 -1.88755 -0.000495336 9.07425e-05 -2.60583e-39
19.8561 0.201547 1.88755 -0.000498511 9.13446e-05 5.85816e-22
19.8561 0.201547 -1.88755 -0.000498511 9.13446e-05 5.85816e-22
19.7902 0.213159 1.88755 -0.000501501 9.19121e-05 -5.99013e-22
19.7902 0.213159 -1.88755 -0.000501501 9.19121e-05 -5.99013e-22
19.7228 0.225027 1.88755 -0.000504347 9.24477e-05 -7.32155e-26
19.7228 0.225027 -1.88755 -0.000504347 9.24477e-05 -7.32155e-26
19.654 0.237157 1.88755 -0.000507106 9.29695e-05 6.26089e-22
19.654 0.237157 -1.88755 -0.000507106 9.29695e-05 6.26089e-22
19.5836 0.249555 1.88755 -0.0005098 9.34773e-05 -2.20405e-38
19.5836 0.249555 -1.88755 -0.0005098 9.34773e-05 -2.20405e-38
19.5117 0.262227 1.88755 -0.000512462 9.39794e-05 -1.46937e-39
19.5117 0.262227 -1.88755 -0.000512462 9.39794e-05 -1.46937e-39
19.4382 0.275178 1.88755 -0.000515102 9.4478e-05 -1.3315e-21
19.4382 0.275178 -1.88755 -0.000515102 9.4478e-05 -1.3315e-21
19.363 0.288415 1.88755 -0.000517734 9.49758e-05 -1.35831e-21
19.363 0.288415 -1.88755 -0.000517734 9.49758e-05 -1.35831e-21
19.2863 0.301945 1.88755 -0.000520369 9.5474e-05 1.65666e-25
19.2863 0.301945 -1.88755 -0.000520369 9.5474e-05 1.65666e-25
19.2078 0.315773 1.88755 -0.000523011 9.59757e-05 1.4109e-21
19.2078 0.315773 -1.88755 -0.000523011 9.59757e-05 1.4109e-21
19.1276 0.329906 1.88755 -0.000525666 9.6479e-05 2.87465e-21
19.1276 0.329906 -1.88755 -0.000525666 9.6479e-05 2.87465e-21
19.0456 0.344351 1.88755 -0.000528349 9.69882e-05 3.50547e-25
19.0456 0.344351 -1.88755 -0.000528349 9.69882e-05 3.50547e-25
18.9618 0.359115 1.88755 -0.000531054 9.75035e-05 2.86986e-42
18.9618 0.359115 -1.88755 -0.000531054 9.75035e-05 2.86986e-42
18.8761 0.374205 1.88755 -0.000533791 9.80234e-05 0
18.8761 0.374205 -1.88755 -0.000533791 9.80234e-05 0
18.7886 0.389628 1.88755 -0.000536565 9.85526e-05 1.54468e-21
18.7886 0.389628 -1.88755 -0.000536565 9.85526e-05 1.54468e-21
18.6991 0.405391 1.88755 -0.000539377 9.90879e-05 0
18.6991 0.405391 -1.88755 -0.000539377 9.90879e-05 0
18.6077 0.421503 1.88755 -0.000542236 9.96338e-05 1.5991e-21
18.6077 0.421503 -1.88755 -0.000542236 9.96338e-05 1.5991e-21
18.5142 0.43797 1.88755 -0.000545142 0.000100188 2.35099e-38
18.5142 0.43797 -1.88755 -0.000545142 0.000100188 2.35099e-38
18.4187 0.4548 1.88755 -0.000548104 0.000100754 -1.65403e-21
18.4187 0.4548 -1.88755 -0.000548104 0.000100754 -1.65403e-21
18.3211 0.472002 1.88755 -0.00055112 0.000101331 4.182e-25
18.3211 0.472002 -1.88755 -0.00055112 0.000101331 4.182e-25
18.2213 0.489584 1.88755 -0.000554201 0.000101919 -4.09904e-25
18.2213 0.489584 -1.88755 -0.000554201 0.000101919 -4.09904e-25
18.1193 0.507553 1.88755 -0.000557347 0.000102522 1.73902e-21
18.1193 0.507553 -1.88755 -0.000557347 0.000102522 1.73902e-21
18.015 0.52592 1.88755 -0.000560566 0.000103137 1.76803e-21
18.015 0.52592 -1.88755 -0.000560566 0.000103137 1.76803e-21
17.9085 0.544691 1.88755 -0.000563865 0.000103769 -3.59593e-21
17.9085 0.544691 -1.88755 -0.000563865 0.000103769 -3.59593e-21
17.7996 0.563878 1.88755 -0.000567239 0.000104415 4.37964e-25
17.7996 0.563878 -1.88755 -0.000567239 0.000104415 4.37964e-25
17.6883 0.583487 1.88755 -0.000570709 0.000105079 -3.71498e-21
17.6883 0.583487 -1.88755 -0.000570709 0.000105079 -3.71498e-21
17.5746 0.60353 1.88755 -0.000574273 0.000105762 -2.86986e-42
17.5746 0.60353 -1.88755 -0.000574273 0.000105762 -2.86986e-42
17.4583 0.624014 1.88755 -0.000577938 0.000106464 -3.83971e-21
17.4583 0.624014 -1.88755 -0.000577938 0.000106464 -3.83971e-21
17.3395 0.644951 1.88755 -0.00058172 0.000107187 3.90296e-21
17.3395 0.644951 -1.88755 -0.00058172 0.000107187 3.90296e-21
17.218 0.66635 1.88755 -0.000585616 0.000107934 9.68739e-25
17.218 0.66635 -1.88755 -0.000585616 0.000107934 9.68739e-25
17.0939 0.688222 1.88755 -0.00058964 0.000108704 4.03422e-21
17.0939 0.688222 -1.88755 -0.00058964 0.000108704 4.03422e-21
16.967 0.710576 1.88755 -0.000593805 0.000109501 1.46937e-39
16.967 0.710576 -1.88755 -0.000593805 0.000109501 1.46937e-39
16.8373 0.733423 1.88755 -0.000598112 0.000110325 -5.18537e-25
16.8373 0.733423 -1.88755 -0.000598112 0.000110325 -5.18537e-25
16.7048 0.756775 1.88755 -0.000602585 0.00011118 -1.9034e-26
16.7048 0.756775 -1.88755 -0.000602585 0.00011118 -1.9034e-26
16.5693 0.780643 1.88755 -0.000607224 0.000112067 5.17028e-25
16.5693 0.780643 -1.88755 -0.000607224 0.000112067 5.17028e-25
16.4309 0.805037 1.88755 -0.00061205 0.000112988 8.77897e-21
16.4309 0.805037 -1.88755 -0.00061205 0.000112988 8.77897e-21
16.2894 0.829969 1.88755 -0.000617078 0.000113948 5.77714e-25
16.2894 0.829969 -1.88755 -0.000617078 0.000113948 5.77714e-25
16.1447 0.855452 1.88755 -0.000622326 0.000114948 -4.54503e-21
16.1447 0.855452 -1.88755 -0.000622326 0.000114948 -4.54503e-21
15.9969 0.881498 1.88755 -0.000627808 0.000115993 4.62602e-21
15.9969 0.881498 -1.88755 -0.000627808 0.000115993 4.62602e-21
15.8458 0.908118 1.88755 -0.000633533 0.000117083 9.41894e-21
15.8458 0.908118 -1.88755 -0.000633533 0.000117083 9.41894e-21
15.6914 0.935326 1.88755 -0.000639543 0.000118224 9.59052e-21
15.6914 0.935326 -1.88755 -0.000639543 0.000118224 9.59052e-21
15.5336 0.963134 1.88755 -0.000645847 0.000119422 1.95379e-20
15.5336 0.963134 -1.88755 -0.000645847 0.000119422 1.95379e-20
15.3722 0.991557 1.88755 -0.000652469 0.000120678 -5.95949e-25
15.3722 0.991557 -1.88755 -0.000652469 0.000120678 -5.95949e-25
15.2074 1.02061 1.88755 -0.000659443 0.000121998 -1.08537e-24
15.2074 1.02061 -1.88755 -0.000659443 0.000121998 -1.08537e-24
15.0389 1.0503 1.88755 -0.000666792 0.000123389 -6.43231e-25
15.0389 1.0503 -1.88755 -0.000666792 0.000123389 -6.43231e-25
14.8666 1.08064 1.88755 -0.000674545 0.000124854 -1.09233e-24
14.8666 1.08064 -1.88755 -0.000674545 0.000124854 -1.09233e-24
14.6906 1.11166 1.88755 -0.000682745 0.0001264 -1.07547e-20
14.6906 1.11166 -1.88755 -0.000682745 0.0001264 -1.07547e-20
14.5107 1.14336 1.88755 -0.000691418 0.000128035 -6.8311e-25
14.5107 1.14336 -1.88755 -0.000691418 0.000128035 -6.8311e-25
14.3268 1.17576 1.88755 -0.000700604 0.000129763 6.7061e-25
14.3268 1.17576 -1.88755 -0.000700604 0.000129763 6.7061e-25
14.1388 1.20888 1.88755 -0.000710357 0.000131596 1.14453e-20
14.1388 1.20888 -1.88755 -0.000710357 0.000131596 1.14453e-20
13.9467 1.24272 1.88755 -0.000720703 0.000133538 0
13.9467 1.24272 -1.88755 -0.000720703 0.000133538 0
13.7504 1.27731 1.88755 -0.00073171 0.000135599 -8.52233e-38
13.7504 1.27731 -1.88755 -0.00073171 0.000135599 -8.52233e-38
13.5497 1.31267 1.88755 -0.000743412 0.00013779 -1.22253e-20
13.5497 1.31267 -1.88755 -0.000743412 0.00013779 -1.22253e-20
13.3446 1.34881 1.88755 -0.000755874 0.000140118 2.5021e-20
13.3446 1.34881 -1.88755 -0.000755874 0.000140118 2.5021e-20
13.135 1.38574 1.88755 -0.000769153 0.000142597 -7.65831e-25
13.135 1.38574 -1.88755 -0.000769153 0.000142597 -7.65831e-25
12.9207 1.42349 1.88755 -0.000783316 0.000145235 -1.17549e-37
12.9207 1.42349 -1.88755 -0.000783316 0.000145235 -1.17549e-37
12.7017 1.46208 1.88755 -0.000798418 0.000148048 -2.68928e-20
12.7017 1.46208 -1.88755 -0.000798418 0.000148048 -2.68928e-20
12.4779 1.50151 1.88755 -0.000814538 0.000151043 2.75822e-20
12.4779 1.50151 -1.88755 -0.000814538 0.000151043 2.75822e-20
12.2491 1.54182 1.88755 -0.000831748 0.000154239 -4.41208e-25
12.2491 1.54182 -1.88755 -0.000831748 0.000154239 -4.41208e-25
12.0153 1.58301 1.88755 -0.000850136 0.000157649 -2.90633e-20
12.0153 1.58301 -1.88755 -0.000850136 0.000157649 -2.90633e-20
11.7763 1.62512 1.88755 -0.00086977 0.000161287 -1.9835e-26
11.7763 1.62512 -1.88755 -0.00086977 0.000161287 -1.9835e-26
11.5321 1.66815 1.88755 -0.000890745 0.000165168 4.58439e-25
11.5321 1.66815 -1.88755 -0.000890745 0.000165168 4.58439e-25
11.2825 1.71214 1.88755 -0.000913151 0.000169311 3.1602e-20
11.2825 1.71214 -1.88755 -0.000913151 0.000169311 3.1602e-20
11.0273 1.75709 1.88755 -0.000937113 0.000173735 3.2543e-20
11.0273 1.75709 -1.88755 -0.000937113 0.000173735 3.2543e-20
10.7665 1.80304 1.88755 -0.000962735 0.000178462 -1.25075e-25
10.7665 1.80304 -1.88755 -0.000962735 0.000178462 -1.25075e-25
10.5 1.85 1.88755 -0.000990135 0.000183511 5.87747e-39
10.5 1.85 -1.88755 -0.000990135 0.000183511 5.87747e-39
10.2335 1.89696 1.88755 -0.00101914 0.000188852 -3.64706e-20
10.2335 1.89696 -1.88755 -0.00101914 0.000188852 -3.64706e-20
9.97268 1.94291 1.88755 -0.00104919 0.000194379 1.5316e-25
9.97268 1.94291 -1.88755 -0.00104919 0.000194379 1.5316e-25
9.71754 1.98786 1.88755 -0.00107994 0.000200034 4.21971e-20
9.71754 1.98786 -1.88755 -0.00107994 0.000200034 4.21971e-20
9.4679 2.03185 1.88755 -0.00111132 0.000205803 3.38445e-25
9.4679 2.03185 -1.88755 -0.00111132 0.000205803 3.38445e-25
9.22365 2.07488 1.88755 -0.00114327 0.000211678 4.85704e-20
9.22365 2.07488 -1.88755 -0.00114327 0.000211678 4.85704e-20
8.98468 2.11699 1.88755 -0.00117582 0.00021766 5.87747e-39
8.98468 2.11699 -1.88755 -0.00117582 0.00021766 5.87747e-39
8.75087 2.15818 1.88755 -0.00120899 0.000223753 0
8.75087 2.15818 -1.88755 -0.00120899 0.000223753 0
8.5221 2.19849 1.88755 -0.00124275 0.000229953 0
8.5221 2.19849 -1.88755 -0.00124275 0.000229953 0
8.29828 2.23792 1.88755 -0.00127702 0.00023625 1.2688e-19
8.29828 2.23792 -1.88755 -0.00127702 0.00023625 1.2688e-19
8.0793 2.27651 1.88755 -0.00131181 0.00024264 -6.76403e-20
8.0793 2.27651 -1.88755 -0.00131181 0.00024264 -6.76403e-20
7.86504 2.31426 1.88755 -0.00134715 0.00024913 -5.87747e-39
7.86504 2.31426 -1.88755 -0.00134715 0.00024913 -5.87747e-39
7.6554 2.35119 1.88755 -0.00138308 0.000255726 -3.83304e-20
7.6554 2.35119 -1.88755 -0.00138308 0.000255726 -3.83304e-20
7.4503 2.38733 1.88755 -0.00141953 0.00026242 -1.17549e-38
7.4503 2.38733 -1.88755 -0.00141953 0.00026242 -1.17549e-38
7.24963 2.42269 1.88755 -0.00145651 0.000269209 -2.35099e-36
7.24963 2.42269 -1.88755 -0.00145651 0.000269209 -2.35099e-36
7.05328 2.45728 1.88755 -0.001494 0.000276095 9.18706e-20
7.05328 2.45728 -1.88755 -0.001494 0.000276095 9.18706e-20
6.86118 2.49112 1.88755 -0.00153209 0.000283087 1.17549e-38
6.86118 2.49112 -1.88755 -0.00153209 0.000283087 1.17549e-38
6.67323 2.52424 1.88755 -0.00157074 0.000290184 -2.8878e-41
6.67323 2.52424 -1.88755 -0.00157074 0.000290184 -2.8878e-41
6.48934 2.55664 1.88755 -0.00160992 0.000297381 1.69406e-24
6.48934 2.55664 -1.88755 -0.00160992 0.000297381 1.69406e-24
6.30942 2.58834 1.88755 -0.00164965 0.00030468 -1.73729e-24
6.30942 2.58834 -1.88755 -0.00164965 0.00030468 -1.73729e-24
6.13338 2.61936 1.88755 -0.00169 0.000312091 9.05131e-37