# wallShearStress  POINT_DATA 994
# x y z  wallShearStress_x wallShearStress_y wallShearStress_z
76.848 4.7 1.88755 -0.000518219 2.04446e-08 0
77.848 4.7 1.88755 -0.000518219 2.04446e-08 0
77.848 4.7 -1.88755 -0.000518219 2.04446e-08 0
76.848 4.7 -1.88755 -0.000518219 2.04446e-08 0
75.8596 4.7 -1.88755 -0.000523663 1.03915e-08 3.24059e-27
75.8596 4.7 1.88755 -0.000523663 1.03915e-08 3.24059e-27
74.8826 4.7 -1.88755 -0.000525584 1.47514e-08 0
74.8826 4.7 1.88755 -0.000525584 1.47514e-08 0
73.9169 4.7 -1.88755 -0.000529283 1.41828e-08 0
73.9169 4.7 1.88755 -0.000529283 1.41828e-08 0
72.9624 4.7 -1.88755 -0.000532174 1.57154e-08 0
72.9624 4.7 1.88755 -0.000532174 1.57154e-08 0
72.019 4.7 -1.88755 -0.000535813 1.55948e-08 1.13515e-26
72.019 4.7 1.88755 -0.000535813 1.55948e-08 1.13515e-26
71.0865 4.7 -1.88755 -0.000538853 1.65282e-08 0
71.0865 4.7 1.88755 -0.000538853 1.65282e-08 0
70.1648 4.7 -1.88755 -0.000542634 1.68735e-08 0
70.1648 4.7 1.88755 -0.000542634 1.68735e-08 0
69.2537 4.7 -1.88755 -0.000545836 1.77374e-08 3.59702e-26
69.2537 4.7 1.88755 -0.000545836 1.77374e-08 3.59702e-26
68.3532 4.7 -1.88755 -0.000549787 1.81205e-08 0
68.3532 4.7 1.88755 -0.000549787 1.81205e-08 0
67.4632 4.7 -1.88755 -0.000553144 1.90577e-08 -4.51773e-26
67.4632 4.7 1.88755 -0.000553144 1.90577e-08 -4.51773e-26
66.5834 4.7 -1.88755 -0.000557286 1.9473e-08 0
66.5834 4.7 1.88755 -0.000557286 1.9473e-08 0
65.7138 4.7 -1.88755 -0.0005608 2.04174e-08 0
65.7138 4.7 1.88755 -0.0005608 2.04174e-08 0
64.8543 4.7 -1.88755 -0.000565128 2.08149e-08 0
64.8543 4.7 1.88755 -0.000565128 2.08149e-08 0
64.0048 4.7 -1.88755 -0.000568803 2.20337e-08 0
64.0048 4.7 1.88755 -0.000568803 2.20337e-08 0
63.1651 4.7 -1.88755 -0.000573372 2.2615e-08 0
63.1651 4.7 1.88755 -0.000573372 2.2615e-08 0
62.3351 4.7 -1.88755 -0.000577257 2.33488e-08 7.4543e-26
62.3351 4.7 1.88755 -0.000577257 2.33488e-08 7.4543e-26
61.5147 4.7 -1.88755 -0.000581942 2.44346e-08 0
61.5147 4.7 1.88755 -0.000581942 2.44346e-08 0
60.7038 4.7 -1.88755 -0.000586145 2.5072e-08 0
60.7038 4.7 1.88755 -0.000586145 2.5072e-08 0
59.9024 4.7 -1.88755 -0.000590932 2.62498e-08 0
59.9024 4.7 1.88755 -0.000590932 2.62498e-08 0
59.1102 4.7 -1.88755 -0.000595457 2.70277e-08 0
59.1102 4.7 1.88755 -0.000595457 2.70277e-08 0
58.3271 4.7 -1.88755 -0.000600383 2.81942e-08 1.011e-25
58.3271 4.7 1.88755 -0.000600383 2.81942e-08 1.011e-25
57.5532 4.7 -1.88755 -0.000605212 2.91612e-08 -1.06646e-25
57.5532 4.7 1.88755 -0.000605212 2.91612e-08 -1.06646e-25
56.7882 4.7 -1.88755 -0.000610321 3.03138e-08 1.1227e-25
56.7882 4.7 1.88755 -0.000610321 3.03138e-08 1.1227e-25
56.032 4.7 -1.88755 -0.000615441 3.14776e-08 1.17974e-25
56.032 4.7 1.88755 -0.000615441 3.14776e-08 1.17974e-25
55.2846 4.7 -1.88755 -0.00062077 3.26553e-08 0
55.2846 4.7 1.88755 -0.00062077 3.26553e-08 0
54.5459 4.7 -1.88755 -0.000626176 3.39994e-08 0
54.5459 4.7 1.88755 -0.000626176 3.39994e-08 0
53.8157 4.7 -1.88755 -0.000631757 3.52182e-08 0
53.8157 4.7 1.88755 -0.000631757 3.52182e-08 0
53.094 4.7 -1.88755 -0.000637453 3.67334e-08 0
53.094 4.7 1.88755 -0.000637453 3.67334e-08 0
52.3806 4.7 -1.88755 -0.000643311 3.80399e-08 0
52.3806 4.7 1.88755 -0.000643311 3.80399e-08 0
51.6755 4.7 -1.88755 -0.000649308 3.97292e-08 0
51.6755 4.7 1.88755 -0.000649308 3.97292e-08 0
50.9785 4.7 -1.88755 -0.000655466 4.11423e-08 0
50.9785 4.7 1.88755 -0.000655466 4.11423e-08 0
50.2897 4.7 -1.88755 -0.000661777 4.30112e-08 1.66471e-25
50.2897 4.7 1.88755 -0.000661777 4.30112e-08 1.66471e-25
49.6088 4.7 -1.88755 -0.000668256 4.45471e-08 0
49.6088 4.7 1.88755 -0.000668256 4.45471e-08 0
48.9358 4.7 -1.88755 -0.000674898 4.65997e-08 0
48.9358 4.7 1.88755 -0.000674898 4.65997e-08 0
48.2705 4.7 -1.88755 -0.000681716 4.82751e-08 0
48.2705 4.7 1.88755 -0.000681716 4.82751e-08 0
47.613 4.7 -1.88755 -0.000688705 5.05246e-08 0
47.613 4.7 1.88755 -0.000688705 5.05246e-08 0
46.9631 4.7 -1.88755 -0.000695879 5.23537e-08 1.99284e-25
46.9631 4.7 1.88755 -0.000695879 5.23537e-08 1.99284e-25
46.3207 4.7 -1.88755 -0.000703232 5.48123e-08 0
46.3207 4.7 1.88755 -0.000703232 5.48123e-08 0
45.6858 4.7 -1.88755 -0.000710779 5.68042e-08 -2.12897e-25
45.6858 4.7 1.88755 -0.000710779 5.68042e-08 -2.12897e-25
45.0582 4.7 -1.88755 -0.000718511 5.94822e-08 0
45.0582 4.7 1.88755 -0.000718511 5.94822e-08 0
44.4379 4.7 -1.88755 -0.000726446 6.16418e-08 2.26751e-25
44.4379 4.7 1.88755 -0.000726446 6.16418e-08 2.26751e-25
43.8248 4.7 -1.88755 -0.000734571 6.45511e-08 0
43.8248 4.7 1.88755 -0.000734571 6.45511e-08 0
43.2187 4.7 -1.88755 -0.000742905 6.68823e-08 0
43.2187 4.7 1.88755 -0.000742905 6.68823e-08 0
42.6197 4.7 -1.88755 -0.000751432 7.00322e-08 0
42.6197 4.7 1.88755 -0.000751432 7.00322e-08 0
42.0276 4.7 -1.88755 -0.000760173 7.25356e-08 2.5502e-25
42.0276 4.7 1.88755 -0.000760173 7.25356e-08 2.5502e-25
41.4424 4.7 -1.88755 -0.000769109 7.59348e-08 2.62167e-25
41.4424 4.7 1.88755 -0.000769109 7.59348e-08 2.62167e-25
40.8639 4.7 -1.88755 -0.00077826 7.86106e-08 2.69318e-25
40.8639 4.7 1.88755 -0.00077826 7.86106e-08 2.69318e-25
40.2922 4.7 -1.88755 -0.000787606 8.22746e-08 0
40.2922 4.7 1.88755 -0.000787606 8.22746e-08 0
39.727 4.7 -1.88755 -0.000797167 8.51309e-08 0
39.727 4.7 1.88755 -0.000797167 8.51309e-08 0
39.1685 4.7 -1.88755 -0.000806917 8.90521e-08 0
39.1685 4.7 1.88755 -0.000806917 8.90521e-08 0
38.6163 4.7 -1.88755 -0.000816878 9.20742e-08 0
38.6163 4.7 1.88755 -0.000816878 9.20742e-08 0
38.0706 4.7 -1.88755 -0.00082702 9.63101e-08 0
38.0706 4.7 1.88755 -0.00082702 9.63101e-08 0
37.5312 4.7 -1.88755 -0.000837365 9.95807e-08 0
37.5312 4.7 1.88755 -0.000837365 9.95807e-08 0
36.998 4.7 -1.88755 -0.000847881 1.0417e-07 0
36.998 4.7 1.88755 -0.000847881 1.0417e-07 0
36.4711 4.7 -1.88755 -0.00085859 1.07707e-07 -1.62615e-25
36.4711 4.7 1.88755 -0.00085859 1.07707e-07 -1.62615e-25
35.9502 4.7 -1.88755 -0.000869454 1.12701e-07 -1.65871e-25
35.9502 4.7 1.88755 -0.000869454 1.12701e-07 -1.65871e-25
35.4353 4.7 -1.88755 -0.000880496 1.16579e-07 0
35.4353 4.7 1.88755 -0.000880496 1.16579e-07 0
34.9264 4.7 -1.88755 -0.000891673 1.22006e-07 1.72049e-25
34.9264 4.7 1.88755 -0.000891673 1.22006e-07 1.72049e-25
34.4234 4.7 -1.88755 -0.000903007 1.26394e-07 0
34.4234 4.7 1.88755 -0.000903007 1.26394e-07 0
33.9204 4.7 -1.88755 -0.000914531 1.32629e-07 0
33.9204 4.7 1.88755 -0.000914531 1.32629e-07 0
33.4352 4.7 -1.88755 -0.000926127 1.37468e-07 0
33.4352 4.7 1.88755 -0.000926127 1.37468e-07 0
32.9672 4.7 -1.88755 -0.000937529 1.44008e-07 -1.89108e-25
32.9672 4.7 1.88755 -0.000937529 1.44008e-07 -1.89108e-25
32.5157 4.7 -1.88755 -0.000948757 1.49226e-07 0
32.5157 4.7 1.88755 -0.000948757 1.49226e-07 0
32.0803 4.7 -1.88755 -0.000959766 1.5613e-07 0
32.0803 4.7 1.88755 -0.000959766 1.5613e-07 0
31.6602 4.7 -1.88755 -0.000970571 1.618e-07 0
31.6602 4.7 1.88755 -0.000970571 1.618e-07 0
31.255 4.7 -1.88755 -0.000981137 1.69103e-07 -2.15091e-25
31.255 4.7 1.88755 -0.000981137 1.69103e-07 -2.15091e-25
30.8642 4.7 -1.88755 -0.00099148 1.75292e-07 0
30.8642 4.7 1.88755 -0.00099148 1.75292e-07 0
30.4871 4.7 -1.88755 -0.00100157 1.8301e-07 0
30.4871 4.7 1.88755 -0.00100157 1.8301e-07 0
30.1235 4.7 -1.88755 -0.00101142 1.89746e-07 0
30.1235 4.7 1.88755 -0.00101142 1.89746e-07 0
29.7727 4.7 -1.88755 -0.00102102 1.97858e-07 1.19029e-25
29.7727 4.7 1.88755 -0.00102102 1.97858e-07 1.19029e-25
29.4343 4.7 -1.88755 -0.00103037 2.0514e-07 0
29.4343 4.7 1.88755 -0.00103037 2.0514e-07 0
29.1079 4.7 -1.88755 -0.00103946 2.13613e-07 0
29.1079 4.7 1.88755 -0.00103946 2.13613e-07 0
28.793 4.7 -1.88755 -0.00104831 2.21392e-07 1.25927e-25
28.793 4.7 1.88755 -0.00104831 2.21392e-07 1.25927e-25
28.4893 4.7 -1.88755 -0.00105691 2.30165e-07 0
28.4893 4.7 1.88755 -0.00105691 2.30165e-07 0
28.1964 4.7 -1.88755 -0.00106526 2.38367e-07 1.29407e-25
28.1964 4.7 1.88755 -0.00106526 2.38367e-07 1.29407e-25
27.9138 4.7 -1.88755 -0.00107337 2.47337e-07 0
27.9138 4.7 1.88755 -0.00107337 2.47337e-07 0
27.6412 4.7 -1.88755 -0.00108124 2.55852e-07 0
27.6412 4.7 1.88755 -0.00108124 2.55852e-07 0
27.3783 4.7 -1.88755 -0.00108888 2.64918e-07 -1.32541e-25
27.3783 4.7 1.88755 -0.00108888 2.64918e-07 -1.32541e-25
27.1246 4.7 -1.88755 -0.0010963 2.73621e-07 0
27.1246 4.7 1.88755 -0.0010963 2.73621e-07 0
26.88 4.7 -1.88755 -0.00110349 2.82669e-07 0
26.88 4.7 1.88755 -0.00110349 2.82669e-07 0
26.644 4.7 -1.88755 -0.00111047 2.91414e-07 0
26.644 4.7 1.88755 -0.00111047 2.91414e-07 0
26.4164 4.7 -1.88755 -0.00111725 3.00313e-07 6.6e-26
26.4164 4.7 1.88755 -0.00111725 3.00313e-07 6.6e-26
26.1968 4.7 -1.88755 -0.00112382 3.08953e-07 0
26.1968 4.7 1.88755 -0.00112382 3.08953e-07 0
25.985 4.7 -1.88755 -0.0011302 3.1758e-07 -6.46896e-26
25.985 4.7 1.88755 -0.0011302 3.1758e-07 -6.46896e-26
25.7807 4.7 -1.88755 -0.00113639 3.25973e-07 0
25.7807 4.7 1.88755 -0.00113639 3.25973e-07 0
25.5836 4.7 -1.88755 -0.0011424 3.34237e-07 0
25.5836 4.7 1.88755 -0.0011424 3.34237e-07 0
25.3935 4.7 -1.88755 -0.00114823 3.42282e-07 6.10733e-26
25.3935 4.7 1.88755 -0.00114823 3.42282e-07 6.10733e-26
25.2101 4.7 -1.88755 -0.0011539 3.50101e-07 0
25.2101 4.7 1.88755 -0.0011539 3.50101e-07 0
25.0332 4.7 -1.88755 -0.0011594 3.5771e-07 5.74795e-26
25.0332 4.7 1.88755 -0.0011594 3.5771e-07 5.74795e-26
24.8626 4.7 -1.88755 -0.00116475 3.65014e-07 0
24.8626 4.7 1.88755 -0.00116475 3.65014e-07 0
24.698 4.7 -1.88755 -0.00116995 3.72125e-07 -2.6441e-26
24.698 4.7 1.88755 -0.00116995 3.72125e-07 -2.6441e-26
24.5393 4.7 -1.88755 -0.001175 3.78883e-07 0
24.5393 4.7 1.88755 -0.001175 3.78883e-07 0
24.3861 4.7 -1.88755 -0.0011799 3.85454e-07 -2.36191e-26
24.3861 4.7 1.88755 -0.0011799 3.85454e-07 -2.36191e-26
24.2384 4.7 -1.88755 -0.00118468 3.91641e-07 2.20061e-26
24.2384 4.7 1.88755 -0.00118468 3.91641e-07 2.20061e-26
24.0959 4.7 -1.88755 -0.00118932 3.97644e-07 0
24.0959 4.7 1.88755 -0.00118932 3.97644e-07 0
23.9585 4.7 -1.88755 -0.00119383 4.03288e-07 -1.83666e-26
23.9585 4.7 1.88755 -0.00119383 4.03288e-07 -1.83666e-26
23.8259 4.7 -1.88755 -0.00119822 4.08736e-07 0
23.8259 4.7 1.88755 -0.00119822 4.08736e-07 0
23.698 4.7 -1.88755 -0.00120249 4.13828e-07 0
23.698 4.7 1.88755 -0.00120249 4.13828e-07 0
23.5746 4.7 -1.88755 -0.00120664 4.18717e-07 -1.18484e-26
23.5746 4.7 1.88755 -0.00120664 4.18717e-07 -1.18484e-26
23.4557 4.7 -1.88755 -0.00121068 4.23291e-07 0
23.4557 4.7 1.88755 -0.00121068 4.23291e-07 0
23.3409 4.7 -1.88755 -0.00121461 4.27675e-07 -3.39097e-27
23.3409 4.7 1.88755 -0.00121461 4.27675e-07 -3.39097e-27
23.2302 4.7 -1.88755 -0.00121843 4.31753e-07 -2.01475e-27
23.2302 4.7 1.88755 -0.00121843 4.31753e-07 -2.01475e-27
23.1234 4.7 -1.88755 -0.00122215 4.35652e-07 5.6507e-28
23.1234 4.7 1.88755 -0.00122215 4.35652e-07 5.6507e-28
23.0203 4.7 -1.88755 -0.00122577 4.39288e-07 9.58364e-28
23.0203 4.7 1.88755 -0.00122577 4.39288e-07 9.58364e-28
22.921 4.7 -1.88755 -0.00122929 4.42747e-07 0
22.921 4.7 1.88755 -0.00122929 4.42747e-07 0
22.8251 4.7 -1.88755 -0.00123272 4.45968e-07 0
22.8251 4.7 1.88755 -0.00123272 4.45968e-07 0
22.7326 4.7 -1.88755 -0.00123605 4.49012e-07 0
22.7326 4.7 1.88755 -0.00123605 4.49012e-07 0
22.6435 4.7 -1.88755 -0.00123929 4.51861e-07 0
22.6435 4.7 1.88755 -0.00123929 4.51861e-07 0
22.5574 4.7 -1.88755 -0.00124245 4.54519e-07 -9.68355e-27
22.5574 4.7 1.88755 -0.00124245 4.54519e-07 -9.68355e-27
22.4744 4.7 -1.88755 -0.00124551 4.57015e-07 5.82473e-27
22.4744 4.7 1.88755 -0.00124551 4.57015e-07 5.82473e-27
22.3944 4.7 -1.88755 -0.0012485 4.5934e-07 6.84417e-27
22.3944 4.7 1.88755 -0.0012485 4.5934e-07 6.84417e-27
22.3172 4.7 -1.88755 -0.0012514 4.61488e-07 0
22.3172 4.7 1.88755 -0.0012514 4.61488e-07 0
22.2427 4.7 -1.88755 -0.00125422 4.63462e-07 0
22.2427 4.7 1.88755 -0.00125422 4.63462e-07 0
22.1708 4.7 -1.88755 -0.00125696 4.65266e-07 0
22.1708 4.7 1.88755 -0.00125696 4.65266e-07 0
22.1015 4.7 -1.88755 -0.00125963 4.67069e-07 0
22.1015 4.7 1.88755 -0.00125963 4.67069e-07 0
22.0347 4.7 -1.88755 -0.00126222 4.68824e-07 0
22.0347 4.7 1.88755 -0.00126222 4.68824e-07 0
21.9702 4.7 -1.88755 -0.00126475 4.70086e-07 -1.37103e-26
21.9702 4.7 1.88755 -0.00126475 4.70086e-07 -1.37103e-26
21.908 4.7 -1.88755 -0.00126721 4.71871e-07 1.49756e-26
21.908 4.7 1.88755 -0.00126721 4.71871e-07 1.49756e-26
21.848 4.7 -1.88755 -0.00126962 4.76769e-07 0
21.848 4.7 1.88755 -0.00126962 4.76769e-07 0
21.7879 4.7 -1.88755 -0.00127204 4.78568e-07 -1.71349e-26
21.7879 4.7 1.88755 -0.00127204 4.78568e-07 -1.71349e-26
21.7278 4.7 -1.88755 -0.00127448 4.74066e-07 0
21.7278 4.7 1.88755 -0.00127448 4.74066e-07 0
21.6677 4.7 -1.88755 -0.0012769 4.69125e-07 0
21.6677 4.7 1.88755 -0.0012769 4.69125e-07 0
21.6075 4.7 -1.88755 -0.00127935 4.6324e-07 0
21.6075 4.7 1.88755 -0.00127935 4.6324e-07 0
21.5474 4.7 -1.88755 -0.00128179 4.57231e-07 1.06346e-26
21.5474 4.7 1.88755 -0.00128179 4.57231e-07 1.06346e-26
21.4873 4.7 -1.88755 -0.00128425 4.51151e-07 -3.28472e-26
21.4873 4.7 1.88755 -0.00128425 4.51151e-07 -3.28472e-26
21.4272 4.7 -1.88755 -0.00128671 4.44935e-07 2.22054e-26
21.4272 4.7 1.88755 -0.00128671 4.44935e-07 2.22054e-26
21.3671 4.7 -1.88755 -0.00128918 4.3845e-07 1.89321e-25
21.3671 4.7 1.88755 -0.00128918 4.3845e-07 1.89321e-25
21.307 4.7 -1.88755 -0.00129166 4.31592e-07 0
21.307 4.7 1.88755 -0.00129166 4.31592e-07 0
21.2469 4.7 -1.88755 -0.00129414 4.24278e-07 -2.61608e-26
21.2469 4.7 1.88755 -0.00129414 4.24278e-07 -2.61608e-26
21.1868 4.7 -1.88755 -0.00129663 4.16098e-07 2.61505e-26
21.1868 4.7 1.88755 -0.00129663 4.16098e-07 2.61505e-26
21.1267 4.7 -1.88755 -0.00129911 4.07492e-07 4.43078e-25
21.1267 4.7 1.88755 -0.00129911 4.07492e-07 4.43078e-25
21.0665 4.7 -1.88755 -0.0013016 3.99884e-07 0
21.0665 4.7 1.88755 -0.0013016 3.99884e-07 0
21.0064 4.7 -1.88755 -0.0013041 3.92794e-07 4.76687e-25
21.0064 4.7 1.88755 -0.0013041 3.92794e-07 4.76687e-25
20.9463 4.7 -1.88755 -0.00130661 3.85442e-07 4.93862e-25
20.9463 4.7 1.88755 -0.00130661 3.85442e-07 4.93862e-25
20.8862 4.7 -1.88755 -0.00130912 3.78134e-07 -6.50133e-26
20.8862 4.7 1.88755 -0.00130912 3.78134e-07 -6.50133e-26
20.8261 4.7 -1.88755 -0.00131164 3.70765e-07 5.93993e-25
20.8261 4.7 1.88755 -0.00131164 3.70765e-07 5.93993e-25
20.766 4.7 -1.88755 -0.00131417 3.63438e-07 0
20.766 4.7 1.88755 -0.00131417 3.63438e-07 0
20.7059 4.7 -1.88755 -0.00131671 3.5612e-07 0
20.7059 4.7 1.88755 -0.00131671 3.5612e-07 0
20.6458 4.7 -1.88755 -0.00131925 3.48827e-07 -5.46594e-25
20.6458 4.7 1.88755 -0.00131925 3.48827e-07 -5.46594e-25
20.5857 4.7 -1.88755 -0.0013218 3.41581e-07 1.16868e-27
20.5857 4.7 1.88755 -0.0013218 3.41581e-07 1.16868e-27
20.5255 4.7 -1.88755 -0.00132435 3.34422e-07 -7.76924e-26
20.5255 4.7 1.88755 -0.00132435 3.34422e-07 -7.76924e-26
20.4654 4.7 -1.88755 -0.00132691 3.27308e-07 1.32118e-24
20.4654 4.7 1.88755 -0.00132691 3.27308e-07 1.32118e-24
20.4053 4.7 -1.88755 -0.00132947 3.20186e-07 -1.32105e-24
20.4053 4.7 1.88755 -0.00132947 3.20186e-07 -1.32105e-24
20.3452 4.7 -1.88755 -0.00133204 3.13179e-07 -1.31784e-24
20.3452 4.7 1.88755 -0.00133204 3.13179e-07 -1.31784e-24
20.2851 4.7 -1.88755 -0.00133461 3.07127e-07 -4.31791e-26
20.2851 4.7 1.88755 -0.00133461 3.07127e-07 -4.31791e-26
20.225 4.7 -1.88755 -0.00133718 3.00749e-07 0
20.225 4.7 1.88755 -0.00133718 3.00749e-07 0
20.1649 4.7 -1.88755 -0.00133973 2.91428e-07 -1.48459e-24
20.1649 4.7 1.88755 -0.00133973 2.91428e-07 -1.48459e-24
20.1049 4.7 -1.88755 -0.00134225 2.89375e-07 -2.42204e-26
20.1049 4.7 1.88755 -0.00134225 2.89375e-07 -2.42204e-26
20.0436 4.7 -1.88755 -0.00134482 2.92515e-07 2.38499e-26
20.0436 4.7 1.88755 -0.00134482 2.92515e-07 2.38499e-26
19.9809 4.7 -1.88755 -0.00134745 2.95954e-07 1.56571e-24
19.9809 4.7 1.88755 -0.00134745 2.95954e-07 1.56571e-24
19.9169 4.7 -1.88755 -0.00135015 2.99928e-07 -1.00394e-25
19.9169 4.7 1.88755 -0.00135015 2.99928e-07 -1.00394e-25
19.8516 4.7 -1.88755 -0.00135293 3.03864e-07 -1.50455e-24
19.8516 4.7 1.88755 -0.00135293 3.03864e-07 -1.50455e-24
19.7848 4.7 -1.88755 -0.00135578 3.07903e-07 0
19.7848 4.7 1.88755 -0.00135578 3.07903e-07 0
19.7165 4.7 -1.88755 -0.00135871 3.11962e-07 -1.64231e-24
19.7165 4.7 1.88755 -0.00135871 3.11962e-07 -1.64231e-24
19.6468 4.7 -1.88755 -0.00136172 3.16049e-07 0
19.6468 4.7 1.88755 -0.00136172 3.16049e-07 0
19.5755 4.7 -1.88755 -0.00136481 3.20104e-07 -1.6826e-24
19.5755 4.7 1.88755 -0.00136481 3.20104e-07 -1.6826e-24
19.5027 4.7 -1.88755 -0.00136798 3.24209e-07 0
19.5027 4.7 1.88755 -0.00136798 3.24209e-07 0
19.4284 4.7 -1.88755 -0.00137124 3.28283e-07 0
19.4284 4.7 1.88755 -0.00137124 3.28283e-07 0
19.3524 4.7 -1.88755 -0.00137458 3.32395e-07 -2.21391e-25
19.3524 4.7 1.88755 -0.00137458 3.32395e-07 -2.21391e-25
19.2747 4.7 -1.88755 -0.00137801 3.36428e-07 2.17762e-25
19.2747 4.7 1.88755 -0.00137801 3.36428e-07 2.17762e-25
19.1954 4.7 -1.88755 -0.00138153 3.4053e-07 -2.27022e-25
19.1954 4.7 1.88755 -0.00138153 3.4053e-07 -2.27022e-25
19.1144 4.7 -1.88755 -0.00138515 3.44521e-07 6.83093e-25
19.1144 4.7 1.88755 -0.00138515 3.44521e-07 6.83093e-25
19.0315 4.7 -1.88755 -0.00138885 3.48563e-07 1.35738e-26
19.0315 4.7 1.88755 -0.00138885 3.48563e-07 1.35738e-26
18.9469 4.7 -1.88755 -0.00139265 3.52466e-07 1.38315e-26
18.9469 4.7 1.88755 -0.00139265 3.52466e-07 1.38315e-26
18.8605 4.7 -1.88755 -0.00139655 3.56432e-07 -4.23029e-24
18.8605 4.7 1.88755 -0.00139655 3.56432e-07 -4.23029e-24
18.7722 4.7 -1.88755 -0.00140055 3.60251e-07 4.8418e-25
18.7722 4.7 1.88755 -0.00140055 3.60251e-07 4.8418e-25
18.6819 4.7 -1.88755 -0.00140465 3.6414e-07 -9.66519e-25
18.6819 4.7 1.88755 -0.00140465 3.6414e-07 -9.66519e-25
18.5898 4.7 -1.88755 -0.00140885 3.67817e-07 4.82189e-25
18.5898 4.7 1.88755 -0.00140885 3.67817e-07 4.82189e-25
18.4956 4.7 -1.88755 -0.00141315 3.71528e-07 3.46518e-24
18.4956 4.7 1.88755 -0.00141315 3.71528e-07 3.46518e-24
18.3993 4.7 -1.88755 -0.00141756 3.75022e-07 1.00572e-24
18.3993 4.7 1.88755 -0.00141756 3.75022e-07 1.00572e-24
18.301 4.7 -1.88755 -0.00142208 3.78617e-07 -5.01764e-25
18.301 4.7 1.88755 -0.00142208 3.78617e-07 -5.01764e-25
18.2005 4.7 -1.88755 -0.0014267 3.81862e-07 4.13266e-24
18.2005 4.7 1.88755 -0.0014267 3.81862e-07 4.13266e-24
18.0979 4.7 -1.88755 -0.00143143 3.85293e-07 8.37941e-24
18.0979 4.7 1.88755 -0.00143143 3.85293e-07 8.37941e-24
17.993 4.7 -1.88755 -0.00143627 3.88318e-07 7.95667e-24
17.993 4.7 1.88755 -0.00143627 3.88318e-07 7.95667e-24
17.8859 4.7 -1.88755 -0.00144123 3.91459e-07 5.29982e-25
17.8859 4.7 1.88755 -0.00144123 3.91459e-07 5.29982e-25
17.7764 4.7 -1.88755 -0.0014463 3.942e-07 0
17.7764 4.7 1.88755 -0.0014463 3.942e-07 0
17.6645 4.7 -1.88755 -0.00145148 3.97091e-07 0
17.6645 4.7 1.88755 -0.00145148 3.97091e-07 0
17.5502 4.7 -1.88755 -0.00145677 3.99463e-07 0
17.5502 4.7 1.88755 -0.00145677 3.99463e-07 0
17.4335 4.7 -1.88755 -0.00146218 4.01983e-07 8.54409e-24
17.4335 4.7 1.88755 -0.00146218 4.01983e-07 8.54409e-24
17.3142 4.7 -1.88755 -0.00146771 4.03911e-07 9.82819e-24
17.3142 4.7 1.88755 -0.00146771 4.03911e-07 9.82819e-24
17.1923 4.7 -1.88755 -0.00147336 4.06033e-07 0
17.1923 4.7 1.88755 -0.00147336 4.06033e-07 0
17.0678 4.7 -1.88755 -0.00147912 4.07444e-07 0
17.0678 4.7 1.88755 -0.00147912 4.07444e-07 0
16.9405 4.7 -1.88755 -0.00148501 4.09116e-07 9.68652e-24
16.9405 4.7 1.88755 -0.00148501 4.09116e-07 9.68652e-24
16.8105 4.7 -1.88755 -0.00149102 4.09957e-07 -1.04623e-23
16.8105 4.7 1.88755 -0.00149102 4.09957e-07 -1.04623e-23
16.6777 4.7 -1.88755 -0.00149714 4.11046e-07 6.13972e-25
16.6777 4.7 1.88755 -0.00149714 4.11046e-07 6.13972e-25
16.542 4.7 -1.88755 -0.0015034 4.11249e-07 -1.07963e-23
16.542 4.7 1.88755 -0.0015034 4.11249e-07 -1.07963e-23
16.4034 4.7 -1.88755 -0.00150978 4.11667e-07 -9.68109e-24
16.4034 4.7 1.88755 -0.00150978 4.11667e-07 -9.68109e-24
16.2617 4.7 -1.88755 -0.00151629 4.11168e-07 0
16.2617 4.7 1.88755 -0.00151629 4.11168e-07 0
16.117 4.7 -1.88755 -0.00152293 4.10866e-07 0
16.117 4.7 1.88755 -0.00152293 4.10866e-07 0
15.9691 4.7 -1.88755 -0.00152971 4.09443e-07 0
15.9691 4.7 1.88755 -0.00152971 4.09443e-07 0
15.818 4.7 -1.88755 -0.00153662 4.0826e-07 -7.01266e-25
15.818 4.7 1.88755 -0.00153662 4.0826e-07 -7.01266e-25
15.6636 4.7 -1.88755 -0.00154368 4.05898e-07 -2.10243e-23
15.6636 4.7 1.88755 -0.00154368 4.05898e-07 -2.10243e-23
15.5059 4.7 -1.88755 -0.00155089 4.03699e-07 -2.35215e-23
15.5059 4.7 1.88755 -0.00155089 4.03699e-07 -2.35215e-23
15.3448 4.7 -1.88755 -0.00155825 4.00149e-07 0
15.3448 4.7 1.88755 -0.00155825 4.00149e-07 0
15.1801 4.7 -1.88755 -0.00156577 3.96774e-07 -7.52816e-25
15.1801 4.7 1.88755 -0.00156577 3.96774e-07 -7.52816e-25
15.0119 4.7 -1.88755 -0.00157346 3.91952e-07 7.39034e-25
15.0119 4.7 1.88755 -0.00157346 3.91952e-07 7.39034e-25
14.84 4.7 -1.88755 -0.00158133 3.87211e-07 0
14.84 4.7 1.88755 -0.00158133 3.87211e-07 0
14.6644 4.7 -1.88755 -0.00158939 3.80715e-07 -7.96399e-25
14.6644 4.7 1.88755 -0.00158939 3.80715e-07 -7.96399e-25
14.485 4.7 -1.88755 -0.00159765 3.7425e-07 1.59386e-24
14.485 4.7 1.88755 -0.00159765 3.7425e-07 1.59386e-24
14.3017 4.7 -1.88755 -0.00160613 3.65985e-07 3.10082e-26
14.3017 4.7 1.88755 -0.00160613 3.65985e-07 3.10082e-26
14.1144 4.7 -1.88755 -0.00161485 3.57644e-07 -8.13118e-25
14.1144 4.7 1.88755 -0.00161485 3.57644e-07 -8.13118e-25
13.9231 4.7 -1.88755 -0.00162383 3.47196e-07 -2.62042e-23
13.9231 4.7 1.88755 -0.00162383 3.47196e-07 -2.62042e-23
13.7276 4.7 -1.88755 -0.00163309 3.36478e-07 -1.72753e-24
13.7276 4.7 1.88755 -0.00163309 3.36478e-07 -1.72753e-24
13.5278 4.7 -1.88755 -0.00164266 3.23444e-07 2.81857e-23
13.5278 4.7 1.88755 -0.00164266 3.23444e-07 2.81857e-23
13.3237 4.7 -1.88755 -0.00165257 3.1007e-07 5.85495e-23
13.3237 4.7 1.88755 -0.00165257 3.1007e-07 5.85495e-23
13.1152 4.7 -1.88755 -0.00166287 2.93994e-07 -5.80026e-23
13.1152 4.7 1.88755 -0.00166287 2.93994e-07 -5.80026e-23
12.9022 4.7 -1.88755 -0.00167358 2.77183e-07 -9.22939e-25
12.9022 4.7 1.88755 -0.00167358 2.77183e-07 -9.22939e-25
12.6845 4.7 -1.88755 -0.00168477 2.57257e-07 6.21528e-23
12.6845 4.7 1.88755 -0.00168477 2.57257e-07 6.21528e-23
12.4621 4.7 -1.88755 -0.00169648 2.36347e-07 6.26272e-23
12.4621 4.7 1.88755 -0.00169648 2.36347e-07 6.26272e-23
12.2349 4.7 -1.88755 -0.00170878 2.11793e-07 6.41088e-23
12.2349 4.7 1.88755 -0.00170878 2.11793e-07 6.41088e-23
12.0027 4.7 -1.88755 -0.00172172 1.85618e-07 5.06497e-25
12.0027 4.7 1.88755 -0.00172172 1.85618e-07 5.06497e-25
11.7655 4.7 -1.88755 -0.00173539 1.55179e-07 -6.73228e-23
11.7655 4.7 1.88755 -0.00173539 1.55179e-07 -6.73228e-23
11.5232 4.7 -1.88755 -0.00174985 1.22475e-07 -8.10078e-25
11.5232 4.7 1.88755 -0.00174985 1.22475e-07 -8.10078e-25
11.2755 4.7 -1.88755 -0.00176522 8.44792e-08 2.72993e-25
11.2755 4.7 1.88755 -0.00176522 8.44792e-08 2.72993e-25
11.0226 4.7 -1.88755 -0.00178156 4.35081e-08 0
11.0226 4.7 1.88755 -0.00178156 4.35081e-08 0
10.7641 4.7 -1.88755 -0.001799 -4.22579e-09 0
10.7641 4.7 1.88755 -0.001799 -4.22579e-09 0
10.5 4.7 -1.88755 -0.00181765 -5.66149e-08 0
10.5 4.7 1.88755 -0.00181765 -5.66149e-08 0
10.2359 4.7 -1.88755 -0.00183746 -1.143e-07 0
10.2359 4.7 1.88755 -0.00183746 -1.143e-07 0
9.97744 4.7 -1.88755 -0.00185811 -1.72494e-07 -1.73967e-25
9.97744 4.7 1.88755 -0.00185811 -1.72494e-07 -1.73967e-25
9.72445 4.7 -1.88755 -0.00187941 -2.32361e-07 -9.30427e-23
9.72445 4.7 1.88755 -0.00187941 -2.32361e-07 -9.30427e-23
9.47684 4.7 -1.88755 -0.00190132 -2.91777e-07 9.9629e-23
9.47684 4.7 1.88755 -0.00190132 -2.91777e-07 9.9629e-23
9.2345 4.7 -1.88755 -0.00192388 -3.52325e-07 1.06355e-22
9.2345 4.7 1.88755 -0.00192388 -3.52325e-07 1.06355e-22
8.9973 4.7 -1.88755 -0.00194713 -4.11679e-07 9.03884e-25
8.9973 4.7 1.88755 -0.00194713 -4.11679e-07 9.03884e-25
8.76514 4.7 -1.88755 -0.00197109 -4.73215e-07 -9.25987e-25
8.76514 4.7 1.88755 -0.00197109 -4.73215e-07 -9.25987e-25
8.53792 4.7 -1.88755 -0.00199569 -5.33881e-07 1.02368e-24
8.53792 4.7 1.88755 -0.00199569 -5.33881e-07 1.02368e-24
8.31552 4.7 -1.88755 -0.00202104 -5.94757e-07 3.93316e-26
8.31552 4.7 1.88755 -0.00202104 -5.94757e-07 3.93316e-26
8.09785 4.7 -1.88755 -0.00204715 -6.5475e-07 -2.26926e-24
8.09785 4.7 1.88755 -0.00204715 -6.5475e-07 -2.26926e-24
7.8848 4.7 -1.88755 -0.002074 -7.16371e-07 -1.51667e-22
7.8848 4.7 1.88755 -0.002074 -7.16371e-07 -1.51667e-22
7.67629 4.7 -1.88755 -0.00210157 -7.77086e-07 -1.25481e-24
7.67629 4.7 1.88755 -0.00210157 -7.77086e-07 -1.25481e-24
7.4722 4.7 -1.88755 -0.00212993 -8.37604e-07 -8.79332e-23
7.4722 4.7 1.88755 -0.00212993 -8.37604e-07 -8.79332e-23
7.27245 4.7 -1.88755 -0.00215914 -8.96994e-07 2.86485e-24
7.27245 4.7 1.88755 -0.00215914 -8.96994e-07 2.86485e-24
7.07694 4.7 -1.88755 -0.00218913 -9.5778e-07 -1.49079e-24
7.07694 4.7 1.88755 -0.00218913 -9.5778e-07 -1.49079e-24
6.88558 4.7 -1.88755 -0.00221989 -1.01731e-06 1.02515e-22
6.88558 4.7 1.88755 -0.00221989 -1.01731e-06 1.02515e-22
6.6983 4.7 -1.88755 -0.00225152 -1.07638e-06 0
6.6983 4.7 1.88755 -0.00225152 -1.07638e-06 0
6.51499 4.7 -1.88755 -0.00228405 -1.13364e-06 1.14374e-22
6.51499 4.7 1.88755 -0.00228405 -1.13364e-06 1.14374e-22
6.33558 4.7 -1.88755 -0.00231747 -1.19204e-06 -1.18782e-22
6.33558 4.7 1.88755 -0.00231747 -1.19204e-06 -1.18782e-22
6.15998 4.7 -1.88755 -0.00235169 -1.24945e-06 1.25337e-22
6.15998 4.7 1.88755 -0.00235169 -1.24945e-06 1.25337e-22
5.98811 4.7 -1.88755 -0.00238686 -1.30504e-06 -1.34185e-22
5.98811 4.7 1.88755 -0.00238686 -1.30504e-06 -1.34185e-22
5.81989 4.7 -1.88755 -0.00242301 -1.35899e-06 0
5.81989 4.7 1.88755 -0.00242301 -1.35899e-06 0
5.65525 4.7 -1.88755 -0.00246014 -1.41329e-06 -1.48864e-22
5.65525 4.7 1.88755 -0.00246014 -1.41329e-06 -1.48864e-22
5.4941 4.7 -1.88755 -0.00249815 -1.46665e-06 -2.48343e-24
5.4941 4.7 1.88755 -0.00249815 -1.46665e-06 -2.48343e-24
5.33638 4.7 -1.88755 -0.00253716 -1.51773e-06 5.15241e-24
5.33638 4.7 1.88755 -0.00253716 -1.51773e-06 5.15241e-24
5.18201 4.7 -1.88755 -0.00257725 -1.56591e-06 1.73404e-22
5.18201 4.7 1.88755 -0.00257725 -1.56591e-06 1.73404e-22
5.03092 4.7 -1.88755 -0.00261844 -1.61461e-06 1.79378e-22
5.03092 4.7 1.88755 -0.00261844 -1.61461e-06 1.79378e-22
4.88305 4.7 -1.88755 -0.0026606 -1.66161e-06 0
4.88305 4.7 1.88755 -0.0026606 -1.66161e-06 0
4.73831 4.7 -1.88755 -0.00270385 -1.70639e-06 0
4.73831 4.7 1.88755 -0.00270385 -1.70639e-06 0
4.59665 4.7 -1.88755 -0.00274828 -1.74697e-06 -3.34205e-24
4.59665 4.7 1.88755 -0.00274828 -1.74697e-06 -3.34205e-24
4.458 4.7 -1.88755 -0.00279394 -1.78734e-06 6.92425e-24
4.458 4.7 1.88755 -0.00279394 -1.78734e-06 6.92425e-24
4.32229 4.7 -1.88755 -0.00284068 -1.82577e-06 1.12616e-22
4.32229 4.7 1.88755 -0.00284068 -1.82577e-06 1.12616e-22
4.18947 4.7 -1.88755 -0.00288863 -1.86071e-06 1.21871e-22
4.18947 4.7 1.88755 -0.00288863 -1.86071e-06 1.21871e-22
4.05947 4.7 -1.88755 -0.00293788 -1.89137e-06 0
4.05947 4.7 1.88755 -0.00293788 -1.89137e-06 0
3.93223 4.7 -1.88755 -0.00298851 -1.92061e-06 0
3.93223 4.7 1.88755 -0.00298851 -1.92061e-06 0
3.8077 4.7 -1.88755 -0.00304034 -1.94754e-06 -1.40329e-22
3.8077 4.7 1.88755 -0.00304034 -1.94754e-06 -1.40329e-22
3.68581 4.7 -1.88755 -0.00309353 -1.96973e-06 4.65053e-24
3.68581 4.7 1.88755 -0.00309353 -1.96973e-06 4.65053e-24
3.56652 4.7 -1.88755 -0.00314817 -1.9866e-06 1.54052e-22
3.56652 4.7 1.88755 -0.00314817 -1.9866e-06 1.54052e-22
3.44975 4.7 -1.88755 -0.00320435 -2.00141e-06 -4.97741e-24
3.44975 4.7 1.88755 -0.00320435 -2.00141e-06 -4.97741e-24
3.33547 4.7 -1.88755 -0.00326187 -2.0127e-06 0
3.33547 4.7 1.88755 -0.00326187 -2.0127e-06 0
3.22362 4.7 -1.88755 -0.0033209 -2.0177e-06 0
3.22362 4.7 1.88755 -0.0033209 -2.0177e-06 0
3.11414 4.7 -1.88755 -0.00338157 -2.01641e-06 1.84639e-22
3.11414 4.7 1.88755 -0.00338157 -2.01641e-06 1.84639e-22
3.00699 4.7 -1.88755 -0.00344389 -2.01267e-06 1.93104e-22
3.00699 4.7 1.88755 -0.00344389 -2.01267e-06 1.93104e-22
2.90212 4.7 -1.88755 -0.00350772 -2.00309e-06 0
2.90212 4.7 1.88755 -0.00350772 -2.00309e-06 0
2.79947 4.7 -1.88755 -0.00357324 -1.98488e-06 0
2.79947 4.7 1.88755 -0.00357324 -1.98488e-06 0
2.69901 4.7 -1.88755 -0.0036406 -1.96159e-06 -6.97117e-24
2.69901 4.7 1.88755 -0.0036406 -1.96159e-06 -6.97117e-24
2.60068 4.7 -1.88755 -0.0037096 -1.93413e-06 7.12398e-24
2.60068 4.7 1.88755 -0.0037096 -1.93413e-06 7.12398e-24
2.50444 4.7 -1.88755 -0.00378029 -1.89776e-06 0
2.50444 4.7 1.88755 -0.00378029 -1.89776e-06 0
2.41024 4.7 -1.88755 -0.00385284 -1.85108e-06 -3.97142e-24
2.41024 4.7 1.88755 -0.00385284 -1.85108e-06 -3.97142e-24
2.31805 4.7 -1.88755 -0.00392736 -1.8002e-06 4.05821e-24
2.31805 4.7 1.88755 -0.00392736 -1.8002e-06 4.05821e-24
2.22782 4.7 -1.88755 -0.0040035 -1.74188e-06 1.36991e-22
2.22782 4.7 1.88755 -0.0040035 -1.74188e-06 1.36991e-22
2.1395 4.7 -1.88755 -0.00408153 -1.67087e-06 0
2.1395 4.7 1.88755 -0.00408153 -1.67087e-06 0
2.05306 4.7 -1.88755 -0.00416154 -1.59305e-06 1.53852e-22
2.05306 4.7 1.88755 -0.00416154 -1.59305e-06 1.53852e-22
1.96845 4.7 -1.88755 -0.00424331 -1.50836e-06 -9.72381e-24
1.96845 4.7 1.88755 -0.00424331 -1.50836e-06 -9.72381e-24
1.88565 4.7 -1.88755 -0.00432682 -1.41053e-06 5.01846e-24
1.88565 4.7 1.88755 -0.00432682 -1.41053e-06 5.01846e-24
1.8046 4.7 -1.88755 -0.00441231 -1.30091e-06 0
1.8046 4.7 1.88755 -0.00441231 -1.30091e-06 0
1.72528 4.7 -1.88755 -0.00449962 -1.18715e-06 1.81766e-22
1.72528 4.7 1.88755 -0.00449962 -1.18715e-06 1.81766e-22
1.64764 4.7 -1.88755 -0.00458846 -1.05822e-06 -5.682e-24
1.64764 4.7 1.88755 -0.00458846 -1.05822e-06 -5.682e-24
1.57165 4.7 -1.88755 -0.00467919 -9.15069e-07 1.91189e-22
1.57165 4.7 1.88755 -0.00467919 -9.15069e-07 1.91189e-22
1.49727 4.7 -1.88755 -0.00477172 -7.68285e-07 0
1.49727 4.7 1.88755 -0.00477172 -7.68285e-07 0
1.42448 4.7 -1.88755 -0.00486552 -6.06906e-07 3.26721e-24
1.42448 4.7 1.88755 -0.00486552 -6.06906e-07 3.26721e-24
1.35323 4.7 -1.88755 -0.00496094 -4.34583e-07 -3.33803e-24
1.35323 4.7 1.88755 -0.00496094 -4.34583e-07 -3.33803e-24
1.2835 4.7 -1.88755 -0.00505772 -2.5619e-07 1.12092e-22
1.2835 4.7 1.88755 -0.00505772 -2.5619e-07 1.12092e-22
1.21524 4.7 -1.88755 -0.00515567 -5.931e-08 1.83674e-24
1.21524 4.7 1.88755 -0.00515567 -5.931e-08 1.83674e-24
1.14844 4.7 -1.88755 -0.00525506 1.5011e-07 -1.8765e-24
1.14844 4.7 1.88755 -0.00525506 1.5011e-07 -1.8765e-24