0 	0.0115465 	0 	0 	0 	0.00179601 	0 	0 	0.00179601 	0 	0.00179601
0.0474747 	0.0115404 	0.231116 	-6.65275e-06 	2.6642e-24 	0.00250929 	-0.000798235 	1.38456e-25 	0.00251867 	1.73222e-25 	0.00251405
0.0949495 	0.0115162 	0.259625 	-0.000211936 	-2.58879e-24 	0.00310745 	-0.000903961 	-2.27831e-24 	0.00315948 	-3.17467e-25 	0.0031335
0.142424 	0.0114906 	0.271858 	-0.000454761 	2.02387e-24 	0.00348024 	-0.00095981 	3.62406e-24 	0.00357892 	2.62667e-25 	0.00352958
0.189899 	0.011464 	0.280171 	-0.000707762 	-1.87819e-24 	0.00377554 	-0.00101748 	-6.11882e-24 	0.00391953 	2.42644e-25 	0.00384754
0.237374 	0.0114386 	0.286608 	-0.000962544 	-6.62763e-25 	0.00402278 	-0.0010762 	-2.13723e-24 	0.00420863 	3.03046e-26 	0.00411571
0.284848 	0.0114134 	0.292131 	-0.00121825 	-3.69044e-24 	0.00424297 	-0.00113584 	-1.8057e-23 	0.00446734 	3.43458e-25 	0.00435515
0.332323 	0.0113902 	0.296983 	-0.00147119 	3.19511e-24 	0.00444016 	-0.00119565 	1.7253e-23 	0.00469863 	-1.50588e-24 	0.0045694
0.379798 	0.0113679 	0.301428 	-0.00172063 	2.77819e-24 	0.00462118 	-0.00125518 	1.44772e-23 	0.00490937 	3.84966e-25 	0.00476528
0.427273 	0.0113468 	0.305594 	-0.00196608 	8.86264e-26 	0.00478994 	-0.00131421 	4.37711e-25 	0.00510375 	8.5572e-26 	0.00494685
0.474747 	0.0113261 	0.309566 	-0.00220765 	3.20416e-24 	0.00494879 	-0.00137255 	1.8119e-23 	0.00528413 	3.32502e-25 	0.00511646
0.522222 	0.0113081 	0.313333 	-0.00243966 	-2.15269e-24 	0.00509633 	-0.00142883 	-1.26836e-23 	0.00544859 	1.00787e-24 	0.00527246
0.569697 	0.0112904 	0.317005 	-0.00266796 	-4.38101e-24 	0.00523729 	-0.00148426 	-2.58667e-23 	0.00560272 	-1.81974e-25 	0.00542
0.617172 	0.0112735 	0.320602 	-0.0028908 	3.07137e-24 	0.00537245 	-0.0015383 	1.74995e-23 	0.00574793 	-9.5953e-25 	0.00556019
0.664646 	0.0112577 	0.324117 	-0.00310484 	3.08484e-24 	0.00550045 	-0.00158992 	1.85717e-23 	0.00588235 	5.80624e-26 	0.0056914
0.712121 	0.0112427 	0.327574 	-0.00331144 	-2.61551e-24 	0.00562184 	-0.00163945 	-1.41487e-23 	0.00600606 	1.49852e-24 	0.00581395
0.759596 	0.0112278 	0.331021 	-0.00351435 	-7.53918e-24 	0.0057404 	-0.00168781 	-4.2883e-23 	0.00612507 	6.82696e-25 	0.00593274
0.807071 	0.0112149 	0.334375 	-0.00370163 	-5.49507e-24 	0.00584932 	-0.00173161 	-3.19602e-23 	0.00623002 	-1.67087e-26 	0.00603967
0.854545 	0.0112016 	0.337747 	-0.00388802 	-9.31008e-26 	0.0059572 	-0.00177497 	-2.13986e-24 	0.00633256 	-1.49835e-24 	0.00614488
0.90202 	0.0111896 	0.341059 	-0.00405784 	3.3688e-26 	0.00605577 	-0.0018131 	-8.109e-25 	0.00642169 	-1.5471e-24 	0.00623874
0.949495 	0.0111772 	0.344401 	-0.0042276 	1.66756e-24 	0.00615399 	-0.00185098 	8.41711e-24 	0.00650945 	-9.57912e-25 	0.00633173
0.99697 	0.0111666 	0.347662 	-0.00437754 	6.12919e-24 	0.00624182 	-0.0018826 	3.05223e-23 	0.00658306 	-1.00403e-24 	0.00641245
1.04444 	0.0111556 	0.35094 	-0.00452684 	9.10142e-24 	0.00632928 	-0.00191381 	4.47768e-23 	0.00665588 	-1.0248e-24 	0.00649258
1.09192 	0.0111453 	0.3542 	-0.00465989 	5.32192e-24 	0.00640834 	-0.00193943 	2.56641e-23 	0.00671654 	9.8391e-26 	0.00656244
1.13939 	0.0111354 	0.357434 	-0.00478497 	3.75961e-24 	0.00648352 	-0.00196232 	1.85415e-23 	0.00677249 	1.05904e-24 	0.00662801
1.18687 	0.0111253 	0.36069 	-0.00490594 	3.05678e-24 	0.00655663 	-0.00198357 	1.56372e-23 	0.00682485 	1.18989e-24 	0.00669075
1.23434 	0.0111164 	0.363872 	-0.00500363 	-8.75606e-25 	0.00661847 	-0.00199682 	-2.52592e-24 	0.00686348 	1.14042e-24 	0.00674098
1.28182 	0.0111073 	0.367059 	-0.00510064 	-4.98289e-24 	0.00668 	-0.00200976 	-2.14825e-23 	0.00690166 	1.13329e-24 	0.00679083
1.32929 	0.0110983 	0.370256 	-0.00518764 	-6.1332e-24 	0.00673678 	-0.00201896 	-2.68303e-23 	0.00693315 	1.40832e-24 	0.00683497
1.37677 	0.01109 	0.373378 	-0.00525232 	-4.90909e-24 	0.00678295 	-0.00202013 	-2.17365e-23 	0.00695269 	6.73627e-25 	0.00686783
1.42424 	0.0110816 	0.3765 	-0.00531701 	-3.68499e-24 	0.00682913 	-0.00202129 	-1.66427e-23 	0.00697223 	-6.10628e-26 	0.00690069
1.47172 	0.0110731 	0.379643 	-0.00537295 	-6.01058e-24 	0.00687129 	-0.00201894 	-2.65779e-23 	0.00698623 	-7.6601e-25 	0.00692877
1.51919 	0.0110654 	0.382664 	-0.00540235 	-4.45578e-24 	0.00690117 	-0.00200713 	-2.0328e-23 	0.00698746 	-7.58427e-25 	0.00694432
1.56667 	0.0110576 	0.385689 	-0.00543034 	-2.10336e-24 	0.00693041 	-0.00199469 	-1.0786e-23 	0.00698797 	-7.50589e-25 	0.0069592
1.61414 	0.0110494 	0.388741 	-0.00545559 	1.83e-24 	0.00695852 	-0.0019809 	5.21811e-24 	0.00698676 	-7.94866e-25 	0.00697264
1.66162 	0.0110422 	0.391673 	-0.00545525 	6.49926e-24 	0.00697516 	-0.00195802 	2.39263e-23 	0.0069737 	-1.09844e-24 	0.00697443
1.70909 	0.0110349 	0.394549 	-0.00544247 	5.97834e-24 	0.00698622 	-0.00193035 	2.24338e-23 	0.00695553 	-8.58539e-25 	0.00697088
1.75657 	0.0110275 	0.397425 	-0.00542969 	5.45742e-24 	0.00699729 	-0.00190268 	2.09413e-23 	0.00693736 	-6.18639e-25 	0.00696732
1.80404 	0.0110193 	0.400346 	-0.00540863 	2.37491e-24 	0.007005 	-0.00187117 	9.72533e-24 	0.00691485 	5.37918e-26 	0.00695992
1.85152 	0.0110129 	0.403023 	-0.0053618 	1.60285e-24 	0.00700129 	-0.00183123 	6.32172e-24 	0.00688301 	3.01098e-25 	0.00694215
1.89899 	0.0110058 	0.405674 	-0.00530515 	1.47975e-24 	0.00699342 	-0.00178712 	5.26253e-24 	0.00684748 	2.76064e-25 	0.00692046
1.94646 	0.0109987 	0.408325 	-0.00524851 	1.35665e-24 	0.00698556 	-0.001743 	4.20334e-24 	0.00681194 	2.5103e-25 	0.00689877
1.99394 	0.0109913 	0.410987 	-0.00518649 	1.28304e-24 	0.00697559 	-0.0016965 	3.3623e-24 	0.00677405 	1.34261e-25 	0.00687485
2.04141 	0.0109845 	0.41346 	-0.00510043 	1.72863e-24 	0.00695561 	-0.00164157 	4.9006e-24 	0.00672812 	-1.67387e-26 	0.0068419
2.08889 	0.0109776 	0.41578 	-0.00499895 	1.8411e-24 	0.0069293 	-0.00158096 	5.48651e-24 	0.00667833 	-2.26011e-26 	0.00680384
2.13636 	0.0109708 	0.4181 	-0.00489748 	1.95357e-24 	0.00690298 	-0.00152035 	6.07242e-24 	0.00662854 	-2.84635e-26 	0.00676577
2.18384 	0.0109639 	0.420421 	-0.004796 	2.06603e-24 	0.00687667 	-0.00145975 	6.65833e-24 	0.00657875 	-3.4326e-26 	0.0067277
2.23131 	0.0109562 	0.422706 	-0.00467787 	1.74691e-24 	0.00684416 	-0.00139229 	5.82276e-24 	0.00652336 	-5.85309e-26 	0.00668373
2.27879 	0.0109501 	0.424611 	-0.0045488 	1.08028e-24 	0.00680669 	-0.00132332 	3.72369e-24 	0.006468 	5.38426e-26 	0.0066373
2.32626 	0.0109436 	0.426382 	-0.00441413 	7.81535e-25 	0.0067668 	-0.00125271 	2.7582e-24 	0.00641226 	1.57045e-25 	0.00658947
2.37374 	0.0109371 	0.428153 	-0.00427946 	4.82792e-25 	0.0067269 	-0.00118211 	1.7927e-24 	0.00635651 	2.60248e-25 	0.00654165
2.42121 	0.0109305 	0.429925 	-0.00414479 	1.8405e-25 	0.006687 	-0.0011115 	8.27213e-25 	0.00630077 	3.63451e-25 	0.00649383
2.46869 	0.0109232 	0.431596 	-0.00399997 	5.32077e-25 	0.00664344 	-0.00103735 	1.90828e-24 	0.00624289 	4.47252e-25 	0.00644312
2.51616 	0.0109166 	0.433118 	-0.00382774 	2.61827e-27 	0.00659061 	-0.000952519 	5.65686e-26 	0.00617893 	4.5384e-25 	0.00638475
2.56364 	0.0109096 	0.434435 	-0.00365716 	-1.04555e-24 	0.00653754 	-0.000868929 	-3.53933e-24 	0.00611761 	4.00799e-25 	0.00632756
2.61111 	0.0109027 	0.435752 	-0.00348659 	-2.09373e-24 	0.00648446 	-0.00078534 	-7.13524e-24 	0.0060563 	3.47757e-25 	0.00627038
2.65859 	0.0108958 	0.437069 	-0.00331602 	-3.1419e-24 	0.00643138 	-0.00070175 	-1.07311e-23 	0.00599498 	2.94716e-25 	0.0062132
2.70606 	0.0108884 	0.438165 	-0.00313555 	-4.79704e-24 	0.00637487 	-0.000614862 	-1.63914e-23 	0.00593364 	3.03878e-25 	0.00615426
2.75354 	0.0108817 	0.438966 	-0.0029486 	-4.82667e-24 	0.00631506 	-0.000525964 	-1.63588e-23 	0.00587349 	1.78778e-25 	0.00609428
2.80101 	0.0108749 	0.439699 	-0.00276457 	-4.31376e-24 	0.00625581 	-0.000438429 	-1.45024e-23 	0.0058147 	-2.00816e-26 	0.00603526
2.84848 	0.010868 	0.440431 	-0.00258054 	-3.80086e-24 	0.00619656 	-0.000350894 	-1.2646e-23 	0.00575591 	-2.18941e-25 	0.00597623
2.89596 	0.0108605 	0.441021 	-0.0023968 	-2.63428e-24 	0.00613716 	-0.000263982 	-8.64175e-24 	0.00569887 	-5.79406e-25 	0.00591802
2.94343 	0.0108542 	0.441288 	-0.00220486 	-2.49171e-24 	0.00607345 	-0.000174452 	-8.5564e-24 	0.00564229 	-7.85607e-25 	0.00585787
2.99091 	0.0108476 	0.441446 	-0.00202081 	-7.84103e-25 	0.0060112 	-8.83826e-05 	-2.77503e-24 	0.00558816 	-5.81204e-25 	0.00579968
3.03838 	0.0108409 	0.441604 	-0.00183675 	9.23501e-25 	0.00594895 	-2.31277e-06 	3.00635e-24 	0.00553402 	-3.76801e-25 	0.00574149
3.08586 	0.0108339 	0.441585 	-0.00165313 	5.55879e-24 	0.00588614 	8.29663e-05 	1.9656e-23 	0.00548161 	1.37628e-26 	0.00568388
3.13333 	0.0108278 	0.441239 	-0.00147527 	5.09197e-24 	0.00582153 	0.000165188 	1.83701e-23 	0.00543103 	9.61771e-26 	0.00562628
3.18081 	0.0108214 	0.440854 	-0.00130153 	2.59412e-24 	0.00575759 	0.000245654 	9.58648e-24 	0.00538134 	2.46948e-25 	0.00556947
3.22828 	0.010815 	0.440448 	-0.00112874 	-5.49128e-25 	0.0056938 	0.000325645 	-1.58217e-24 	0.00533199 	4.38825e-25 	0.0055129
3.27576 	0.0108089 	0.439682 	-0.000962908 	-3.40757e-24 	0.00562798 	0.000401741 	-1.21126e-23 	0.00528431 	9.81301e-25 	0.00545616
3.32323 	0.0108031 	0.4388 	-0.000806662 	-3.46706e-24 	0.00556242 	0.00047379 	-1.26866e-23 	0.00523737 	5.07883e-25 	0.0053999
3.37071 	0.0107972 	0.437917 	-0.000650417 	-3.52655e-24 	0.00549685 	0.00054584 	-1.32606e-23 	0.00519043 	3.44653e-26 	0.00534365
3.41818 	0.0107916 	0.436724 	-0.000504809 	-6.30198e-24 	0.00542953 	0.000612564 	-2.45905e-23 	0.00514416 	-1.04366e-24 	0.00528686
3.46566 	0.0107864 	0.435393 	-0.000370421 	-3.17427e-24 	0.00536168 	0.000674568 	-1.2286e-23 	0.00509764 	-1.19059e-24 	0.00522967
3.51313 	0.010781 	0.43405 	-0.00023698 	6.46924e-25 	0.00529393 	0.000736132 	2.8132e-24 	0.00505124 	-1.29465e-24 	0.00517259
3.56061 	0.0107764 	0.432381 	-0.000118724 	8.10076e-24 	0.00522316 	0.00079057 	3.33707e-23 	0.00500337 	-1.27735e-24 	0.00511328
3.60808 	0.0107719 	0.430648 	-8.30404e-06 	9.88736e-24 	0.0051521 	0.000841845 	4.1148e-23 	0.00495484 	-6.0804e-25 	0.00505348
3.65556 	0.0107674 	0.428801 	9.69823e-05 	1.05888e-23 	0.00507987 	0.000890582 	4.45314e-23 	0.0049056 	1.07085e-24 	0.00499274
3.70303 	0.0107638 	0.426707 	0.000183552 	7.05508e-24 	0.00500457 	0.000931354 	2.94718e-23 	0.00485288 	1.48585e-24 	0.00492873
3.75051 	0.0107598 	0.424596 	0.000267527 	1.84832e-24 	0.00492946 	0.000970987 	7.37581e-24 	0.00480018 	1.46449e-24 	0.00486483
3.79798 	0.0107573 	0.422188 	0.000334321 	-5.16602e-24 	0.00484921 	0.001003 	-2.2718e-23 	0.00474207 	7.24577e-25 	0.00479565
3.84545 	0.0107545 	0.419761 	0.000396283 	-6.8849e-24 	0.00476901 	0.00103316 	-2.99892e-23 	0.00468335 	-1.5087e-25 	0.00472618
3.89293 	0.0107526 	0.417061 	0.000440623 	-6.90757e-25 	0.0046837 	0.00105557 	-3.11398e-24 	0.0046185 	-4.13786e-25 	0.00465111
3.9404 	0.0107504 	0.41432 	0.000479239 	3.43664e-24 	0.00459783 	0.00107575 	1.46442e-23 	0.00455225 	4.24223e-25 	0.00457505
3.98788 	0.0107499 	0.411295 	0.000501346 	-2.25115e-24 	0.0045056 	0.00108885 	-1.04106e-23 	0.00447812 	7.34642e-25 	0.00449186
4.03535 	0.0107494 	0.408179 	0.000516424 	-1.04627e-23 	0.00441146 	0.00109901 	-4.65251e-23 	0.00440112 	-8.04013e-25 	0.00440629
4.08283 	0.0107496 	0.404846 	0.000517455 	-4.62108e-24 	0.00431243 	0.00110352 	-2.02489e-23 	0.00431699 	-2.83279e-24 	0.00431471
4.1303 	0.0107506 	0.401288 	0.000506956 	1.41055e-23 	0.00420806 	0.00110314 	6.2474e-23 	0.00422573 	-1.17303e-24 	0.0042169
4.17778 	0.0107522 	0.397535 	0.000487072 	1.18223e-23 	0.00409915 	0.00109896 	5.15973e-23 	0.00412815 	2.03174e-24 	0.00411365
4.22525 	0.0107538 	0.393541 	0.000456398 	-4.17856e-24 	0.003985 	0.00109051 	-1.76813e-23 	0.00402286 	2.21024e-24 	0.00400393
4.27273 	0.0107579 	0.389161 	0.000414245 	-7.40799e-24 	0.00386186 	0.00107742 	-3.26326e-23 	0.00390604 	-4.20358e-25 	0.00388395
4.3202 	0.0107621 	0.384398 	0.000362118 	-4.23752e-25 	0.00373094 	0.00106031 	-1.27239e-24 	0.00377867 	-7.75056e-25 	0.00375481
4.36768 	0.0107672 	0.379142 	0.00030113 	1.43985e-25 	0.00359052 	0.00103969 	-7.73654e-25 	0.00363901 	2.04001e-25 	0.00361477
4.41515 	0.0107729 	0.373193 	0.000231526 	-2.1268e-24 	0.00343792 	0.00101553 	-4.9423e-24 	0.00348408 	6.71497e-25 	0.003461
4.46263 	0.0107804 	0.366153 	0.000154781 	-4.78805e-24 	0.00326863 	0.000988318 	-1.38613e-23 	0.00330926 	-4.52083e-26 	0.00328895
4.5101 	0.0107881 	0.357633 	7.40199e-05 	1.17272e-24 	0.00308082 	0.000958847 	2.69342e-25 	0.00311315 	-8.94622e-25 	0.00309699
4.55758 	0.010797 	0.34605 	-7.82757e-06 	1.30527e-24 	0.002862 	0.000926574 	4.666e-24 	0.00288319 	8.49835e-25 	0.0028726
4.60505 	0.0108051 	0.327797 	-8.03732e-05 	7.18239e-24 	0.00259746 	0.00088836 	5.34098e-24 	0.002606 	-8.2801e-26 	0.00260175
4.65253 	0.0108129 	0.280165 	-0.000105801 	-4.7507e-24 	0.00216947 	0.000723603 	-9.54281e-25 	0.00216855 	-6.47314e-26 	0.00216901
4.7 	0.0108128 	0 	0 	0 	0.00182509 	0 	0 	0.00182509 	0 	0.00182509
