# p  POINT_DATA 994
# x y z  p
76.848 3.84014e-15 1.88755 0.00026424
76.848 3.84014e-15 -1.88755 0.00026424
77.848 3.89022e-15 -1.88755 0.00026424
77.848 3.89022e-15 1.88755 0.00026424
75.8596 3.79065e-15 1.88755 0.000400998
75.8596 3.79065e-15 -1.88755 0.000400998
74.8826 3.74172e-15 1.88755 0.000762326
74.8826 3.74172e-15 -1.88755 0.000762326
73.9169 3.69337e-15 1.88755 0.00100511
73.9169 3.69337e-15 -1.88755 0.00100511
72.9624 3.64557e-15 1.88755 0.00129401
72.9624 3.64557e-15 -1.88755 0.00129401
72.019 3.59833e-15 1.88755 0.00155978
72.019 3.59833e-15 -1.88755 0.00155978
71.0865 3.55163e-15 1.88755 0.00183003
71.0865 3.55163e-15 -1.88755 0.00183003
70.1648 3.50547e-15 1.88755 0.00209706
70.1648 3.50547e-15 -1.88755 0.00209706
69.2537 3.45985e-15 1.88755 0.00236146
69.2537 3.45985e-15 -1.88755 0.00236146
68.3532 3.41476e-15 1.88755 0.00262487
68.3532 3.41476e-15 -1.88755 0.00262487
67.4632 3.37019e-15 1.88755 0.00288524
67.4632 3.37019e-15 -1.88755 0.00288524
66.5834 3.32613e-15 1.88755 0.00314399
66.5834 3.32613e-15 -1.88755 0.00314399
65.7138 3.28259e-15 1.88755 0.00340002
65.7138 3.28259e-15 -1.88755 0.00340002
64.8543 3.23955e-15 1.88755 0.00365371
64.8543 3.23955e-15 -1.88755 0.00365371
64.0048 3.19701e-15 1.88755 0.00390456
64.0048 3.19701e-15 -1.88755 0.00390456
63.1651 3.15496e-15 1.88755 0.0041524
63.1651 3.15496e-15 -1.88755 0.0041524
62.3351 3.11339e-15 1.88755 0.00439696
62.3351 3.11339e-15 -1.88755 0.00439696
61.5147 3.07231e-15 1.88755 0.0046379
61.5147 3.07231e-15 -1.88755 0.0046379
60.7038 3.03171e-15 1.88755 0.00487496
60.7038 3.03171e-15 -1.88755 0.00487496
59.9024 2.99157e-15 1.88755 0.00510705
59.9024 2.99157e-15 -1.88755 0.00510705
59.1102 2.9519e-15 1.88755 0.00533421
59.1102 2.9519e-15 -1.88755 0.00533421
58.3271 2.91269e-15 1.88755 0.00555754
58.3271 2.91269e-15 -1.88755 0.00555754
57.5532 2.87393e-15 1.88755 0.00577633
57.5532 2.87393e-15 -1.88755 0.00577633
56.7882 2.83562e-15 1.88755 0.00598957
56.7882 2.83562e-15 -1.88755 0.00598957
56.032 2.79776e-15 1.88755 0.00619716
56.032 2.79776e-15 -1.88755 0.00619716
55.2846 2.76033e-15 1.88755 0.00639857
55.2846 2.76033e-15 -1.88755 0.00639857
54.5459 2.72334e-15 1.88755 0.00659325
54.5459 2.72334e-15 -1.88755 0.00659325
53.8157 2.68678e-15 1.88755 0.00678058
53.8157 2.68678e-15 -1.88755 0.00678058
53.094 2.65063e-15 1.88755 0.00696013
53.094 2.65063e-15 -1.88755 0.00696013
52.3806 2.61491e-15 1.88755 0.00713128
52.3806 2.61491e-15 -1.88755 0.00713128
51.6755 2.5796e-15 1.88755 0.00729338
51.6755 2.5796e-15 -1.88755 0.00729338
50.9785 2.5447e-15 1.88755 0.00744572
50.9785 2.5447e-15 -1.88755 0.00744572
50.2897 2.51021e-15 1.88755 0.0075875
50.2897 2.51021e-15 -1.88755 0.0075875
49.6088 2.47611e-15 1.88755 0.00771793
49.6088 2.47611e-15 -1.88755 0.00771793
48.9358 2.44241e-15 1.88755 0.00783617
48.9358 2.44241e-15 -1.88755 0.00783617
48.2705 2.4091e-15 1.88755 0.00794135
48.2705 2.4091e-15 -1.88755 0.00794135
47.613 2.37617e-15 1.88755 0.00803255
47.613 2.37617e-15 -1.88755 0.00803255
46.9631 2.34362e-15 1.88755 0.0081087
46.9631 2.34362e-15 -1.88755 0.0081087
46.3207 2.31146e-15 1.88755 0.00816858
46.3207 2.31146e-15 -1.88755 0.00816858
45.6858 2.27966e-15 1.88755 0.008211
45.6858 2.27966e-15 -1.88755 0.008211
45.0582 2.24823e-15 1.88755 0.00823473
45.0582 2.24823e-15 -1.88755 0.00823473
44.4379 2.21717e-15 1.88755 0.00823836
44.4379 2.21717e-15 -1.88755 0.00823836
43.8248 2.18647e-15 1.88755 0.0082204
43.8248 2.18647e-15 -1.88755 0.0082204
43.2187 2.15612e-15 1.88755 0.00817926
43.2187 2.15612e-15 -1.88755 0.00817926
42.6197 2.12612e-15 1.88755 0.00811314
42.6197 2.12612e-15 -1.88755 0.00811314
42.0276 2.09647e-15 1.88755 0.00802005
42.0276 2.09647e-15 -1.88755 0.00802005
41.4424 2.06717e-15 1.88755 0.00789768
41.4424 2.06717e-15 -1.88755 0.00789768
40.8639 2.0382e-15 1.88755 0.00774264
40.8639 2.0382e-15 -1.88755 0.00774264
40.2922 2.00957e-15 1.88755 0.0075531
40.2922 2.00957e-15 -1.88755 0.0075531
39.727 1.98127e-15 1.88755 0.0073282
39.727 1.98127e-15 -1.88755 0.0073282
39.1685 1.9533e-15 1.88755 0.00706484
39.1685 1.9533e-15 -1.88755 0.00706484
38.6163 1.92565e-15 1.88755 0.0067595
38.6163 1.92565e-15 -1.88755 0.0067595
38.0706 1.89832e-15 1.88755 0.00640895
38.0706 1.89832e-15 -1.88755 0.00640895
37.5312 1.87131e-15 1.88755 0.0060097
37.5312 1.87131e-15 -1.88755 0.0060097
36.998 1.84461e-15 1.88755 0.00555803
36.998 1.84461e-15 -1.88755 0.00555803
36.4711 1.81822e-15 1.88755 0.00504993
36.4711 1.81822e-15 -1.88755 0.00504993
35.9502 1.79214e-15 1.88755 0.00448127
35.9502 1.79214e-15 -1.88755 0.00448127
35.4353 1.76636e-15 1.88755 0.00384743
35.4353 1.76636e-15 -1.88755 0.00384743
34.9264 1.74087e-15 1.88755 0.00314418
34.9264 1.74087e-15 -1.88755 0.00314418
34.4234 1.71568e-15 1.88755 0.00236579
34.4234 1.71568e-15 -1.88755 0.00236579
33.9204 1.6905e-15 1.88755 0.00150339
33.9204 1.6905e-15 -1.88755 0.00150339
33.4352 1.6662e-15 1.88755 0.000561307
33.4352 1.6662e-15 -1.88755 0.000561307
32.9672 1.64276e-15 1.88755 -0.000444874
32.9672 1.64276e-15 -1.88755 -0.000444874
32.5157 1.62016e-15 1.88755 -0.00151302
32.5157 1.62016e-15 -1.88755 -0.00151302
32.0803 1.59835e-15 1.88755 -0.00264162
32.0803 1.59835e-15 -1.88755 -0.00264162
31.6602 1.57731e-15 1.88755 -0.00382808
31.6602 1.57731e-15 -1.88755 -0.00382808
31.255 1.55702e-15 1.88755 -0.00506968
31.255 1.55702e-15 -1.88755 -0.00506968
30.8642 1.53745e-15 1.88755 -0.00636307
30.8642 1.53745e-15 -1.88755 -0.00636307
30.4871 1.51857e-15 1.88755 -0.00770462
30.4871 1.51857e-15 -1.88755 -0.00770462
30.1235 1.50036e-15 1.88755 -0.00909029
30.1235 1.50036e-15 -1.88755 -0.00909029
29.7727 1.48279e-15 1.88755 -0.0105158
29.7727 1.48279e-15 -1.88755 -0.0105158
29.4343 1.46585e-15 1.88755 -0.0119765
29.4343 1.46585e-15 -1.88755 -0.0119765
29.1079 1.4495e-15 1.88755 -0.0134679
29.1079 1.4495e-15 -1.88755 -0.0134679
28.793 1.43374e-15 1.88755 -0.0149855
28.793 1.43374e-15 -1.88755 -0.0149855
28.4893 1.41853e-15 1.88755 -0.0165247
28.4893 1.41853e-15 -1.88755 -0.0165247
28.1964 1.40386e-15 1.88755 -0.0180796
28.1964 1.40386e-15 -1.88755 -0.0180796
27.9138 1.38971e-15 1.88755 -0.0196451
27.9138 1.38971e-15 -1.88755 -0.0196451
27.6412 1.37606e-15 1.88755 -0.0212172
27.6412 1.37606e-15 -1.88755 -0.0212172
27.3783 1.36289e-15 1.88755 -0.0227914
27.3783 1.36289e-15 -1.88755 -0.0227914
27.1246 1.35019e-15 1.88755 -0.0243634
27.1246 1.35019e-15 -1.88755 -0.0243634
26.88 1.33794e-15 1.88755 -0.0259297
26.88 1.33794e-15 -1.88755 -0.0259297
26.644 1.32612e-15 1.88755 -0.0274867
26.644 1.32612e-15 -1.88755 -0.0274867
26.4164 1.31472e-15 1.88755 -0.0290335
26.4164 1.31472e-15 -1.88755 -0.0290335
26.1968 1.30373e-15 1.88755 -0.0305667
26.1968 1.30373e-15 -1.88755 -0.0305667
25.985 1.29312e-15 1.88755 -0.0320815
25.985 1.29312e-15 -1.88755 -0.0320815
25.7807 1.28289e-15 1.88755 -0.0335773
25.7807 1.28289e-15 -1.88755 -0.0335773
25.5836 1.27302e-15 1.88755 -0.0350515
25.5836 1.27302e-15 -1.88755 -0.0350515
25.3935 1.2635e-15 1.88755 -0.036502
25.3935 1.2635e-15 -1.88755 -0.036502
25.2101 1.25432e-15 1.88755 -0.0379267
25.2101 1.25432e-15 -1.88755 -0.0379267
25.0332 1.24546e-15 1.88755 -0.0393239
25.0332 1.24546e-15 -1.88755 -0.0393239
24.8626 1.23692e-15 1.88755 -0.040692
24.8626 1.23692e-15 -1.88755 -0.040692
24.698 1.22867e-15 1.88755 -0.0420298
24.698 1.22867e-15 -1.88755 -0.0420298
24.5393 1.22072e-15 1.88755 -0.0433363
24.5393 1.22072e-15 -1.88755 -0.0433363
24.3861 1.21306e-15 1.88755 -0.0446108
24.3861 1.21306e-15 -1.88755 -0.0446108
24.2384 1.20566e-15 1.88755 -0.0458526
24.2384 1.20566e-15 -1.88755 -0.0458526
24.0959 1.19852e-15 1.88755 -0.0470613
24.0959 1.19852e-15 -1.88755 -0.0470613
23.9585 1.19164e-15 1.88755 -0.0482364
23.9585 1.19164e-15 -1.88755 -0.0482364
23.8259 1.185e-15 1.88755 -0.0493779
23.8259 1.185e-15 -1.88755 -0.0493779
23.698 1.1786e-15 1.88755 -0.0504857
23.698 1.1786e-15 -1.88755 -0.0504857
23.5746 1.17242e-15 1.88755 -0.0515599
23.5746 1.17242e-15 -1.88755 -0.0515599
23.4557 1.16646e-15 1.88755 -0.0526007
23.4557 1.16646e-15 -1.88755 -0.0526007
23.3409 1.16071e-15 1.88755 -0.0536086
23.3409 1.16071e-15 -1.88755 -0.0536086
23.2302 1.15517e-15 1.88755 -0.0545837
23.2302 1.15517e-15 -1.88755 -0.0545837
23.1234 1.14982e-15 1.88755 -0.0555266
23.1234 1.14982e-15 -1.88755 -0.0555266
23.0203 1.14466e-15 1.88755 -0.0564378
23.0203 1.14466e-15 -1.88755 -0.0564378
22.921 1.13969e-15 1.88755 -0.0573178
22.921 1.13969e-15 -1.88755 -0.0573178
22.8251 1.13489e-15 1.88755 -0.0581673
22.8251 1.13489e-15 -1.88755 -0.0581673
22.7326 1.13026e-15 1.88755 -0.0589868
22.7326 1.13026e-15 -1.88755 -0.0589868
22.6435 1.12579e-15 1.88755 -0.0597769
22.6435 1.12579e-15 -1.88755 -0.0597769
22.5574 1.12148e-15 1.88755 -0.0605385
22.5574 1.12148e-15 -1.88755 -0.0605385
22.4744 1.11733e-15 1.88755 -0.061272
22.4744 1.11733e-15 -1.88755 -0.061272
22.3944 1.11332e-15 1.88755 -0.0619781
22.3944 1.11332e-15 -1.88755 -0.0619781
22.3172 1.10945e-15 1.88755 -0.0626576
22.3172 1.10945e-15 -1.88755 -0.0626576
22.2427 1.10572e-15 1.88755 -0.0633109
22.2427 1.10572e-15 -1.88755 -0.0633109
22.1708 1.10212e-15 1.88755 -0.0639386
22.1708 1.10212e-15 -1.88755 -0.0639386
22.1015 1.09865e-15 1.88755 -0.0645411
22.1015 1.09865e-15 -1.88755 -0.0645411
22.0347 1.0953e-15 1.88755 -0.0651185
22.0347 1.0953e-15 -1.88755 -0.0651185
21.9702 1.09208e-15 1.88755 -0.0656707
21.9702 1.09208e-15 -1.88755 -0.0656707
21.908 1.08896e-15 1.88755 -0.0661957
21.908 1.08896e-15 -1.88755 -0.0661957
21.848 1.73472e-15 1.88755 -0.0666927
21.848 1.73472e-15 -1.88755 -0.0666927
21.7876 0.000188157 1.88755 -0.0671509
21.7876 0.000188157 -1.88755 -0.0671509
21.7272 0.00075262 1.88755 -0.0675867
21.7272 0.00075262 -1.88755 -0.0675867
21.6668 0.00169337 1.88755 -0.0680249
21.6668 0.00169337 -1.88755 -0.0680249
21.6063 0.00301036 1.88755 -0.0684609
21.6063 0.00301036 -1.88755 -0.0684609
21.546 0.00470355 1.88755 -0.0688951
21.546 0.00470355 -1.88755 -0.0688951
21.4856 0.00677288 1.88755 -0.0693277
21.4856 0.00677288 -1.88755 -0.0693277
21.4252 0.00921825 1.88755 -0.0697583
21.4252 0.00921825 -1.88755 -0.0697583
21.3649 0.0120396 1.88755 -0.0701869
21.3649 0.0120396 -1.88755 -0.0701869
21.3045 0.0152368 1.88755 -0.0706131
21.3045 0.0152368 -1.88755 -0.0706131
21.2442 0.0188097 1.88755 -0.0710368
21.2442 0.0188097 -1.88755 -0.0710368
21.1839 0.0227581 1.88755 -0.0714579
21.1839 0.0227581 -1.88755 -0.0714579
21.1237 0.0270821 1.88755 -0.0718763
21.1237 0.0270821 -1.88755 -0.0718763
21.0634 0.0317812 1.88755 -0.0722919
21.0634 0.0317812 -1.88755 -0.0722919
21.0032 0.0368555 1.88755 -0.0727049
21.0032 0.0368555 -1.88755 -0.0727049
20.9431 0.0423046 1.88755 -0.0731151
20.9431 0.0423046 -1.88755 -0.0731151
20.8829 0.0481284 1.88755 -0.0735225
20.8829 0.0481284 -1.88755 -0.0735225
20.8228 0.0543267 1.88755 -0.0739274
20.8228 0.0543267 -1.88755 -0.0739274
20.7628 0.0608992 1.88755 -0.0743297
20.7628 0.0608992 -1.88755 -0.0743297
20.7027 0.0678456 1.88755 -0.0747296
20.7027 0.0678456 -1.88755 -0.0747296
20.6428 0.0751657 1.88755 -0.0751272
20.6428 0.0751657 -1.88755 -0.0751272
20.5828 0.0828592 1.88755 -0.0755227
20.5828 0.0828592 -1.88755 -0.0755227
20.523 0.0909258 1.88755 -0.0759164
20.523 0.0909258 -1.88755 -0.0759164
20.4631 0.0993652 1.88755 -0.0763085
20.4631 0.0993652 -1.88755 -0.0763085
20.4034 0.108177 1.88755 -0.0766996
20.4034 0.108177 -1.88755 -0.0766996
20.3437 0.117361 1.88755 -0.0770903
20.3437 0.117361 -1.88755 -0.0770903
20.284 0.126917 1.88755 -0.0774816
20.284 0.126917 -1.88755 -0.0774816
20.2244 0.136844 1.88755 -0.0778762
20.2244 0.136844 -1.88755 -0.0778762
20.1649 0.147142 1.88755 -0.0782761
20.1649 0.147142 -1.88755 -0.0782761
20.1058 0.157553 1.88755 -0.078702
20.1058 0.157553 -1.88755 -0.078702
20.0454 0.168194 1.88755 -0.0791507
20.0454 0.168194 -1.88755 -0.0791507
19.9837 0.17907 1.88755 -0.0796019
19.9837 0.17907 -1.88755 -0.0796019
19.9206 0.190185 1.88755 -0.0800607
19.9206 0.190185 -1.88755 -0.0800607
19.8561 0.201547 1.88755 -0.0805274
19.8561 0.201547 -1.88755 -0.0805274
19.7902 0.213159 1.88755 -0.0810019
19.7902 0.213159 -1.88755 -0.0810019
19.7228 0.225027 1.88755 -0.0814853
19.7228 0.225027 -1.88755 -0.0814853
19.654 0.237157 1.88755 -0.0819784
19.654 0.237157 -1.88755 -0.0819784
19.5836 0.249555 1.88755 -0.0824821
19.5836 0.249555 -1.88755 -0.0824821
19.5117 0.262227 1.88755 -0.0829971
19.5117 0.262227 -1.88755 -0.0829971
19.4382 0.275178 1.88755 -0.0835245
19.4382 0.275178 -1.88755 -0.0835245
19.363 0.288415 1.88755 -0.084065
19.363 0.288415 -1.88755 -0.084065
19.2863 0.301945 1.88755 -0.0846196
19.2863 0.301945 -1.88755 -0.0846196
19.2078 0.315773 1.88755 -0.0851889
19.2078 0.315773 -1.88755 -0.0851889
19.1276 0.329906 1.88755 -0.0857739
19.1276 0.329906 -1.88755 -0.0857739
19.0456 0.344351 1.88755 -0.0863755
19.0456 0.344351 -1.88755 -0.0863755
18.9618 0.359115 1.88755 -0.0869943
18.9618 0.359115 -1.88755 -0.0869943
18.8761 0.374205 1.88755 -0.0876312
18.8761 0.374205 -1.88755 -0.0876312
18.7886 0.389628 1.88755 -0.0882869
18.7886 0.389628 -1.88755 -0.0882869
18.6991 0.405391 1.88755 -0.0889624
18.6991 0.405391 -1.88755 -0.0889624
18.6077 0.421503 1.88755 -0.0896583
18.6077 0.421503 -1.88755 -0.0896583
18.5142 0.43797 1.88755 -0.0903754
18.5142 0.43797 -1.88755 -0.0903754
18.4187 0.4548 1.88755 -0.0911146
18.4187 0.4548 -1.88755 -0.0911146
18.3211 0.472002 1.88755 -0.0918767
18.3211 0.472002 -1.88755 -0.0918767
18.2213 0.489584 1.88755 -0.0926624
18.2213 0.489584 -1.88755 -0.0926624
18.1193 0.507553 1.88755 -0.0934728
18.1193 0.507553 -1.88755 -0.0934728
18.015 0.52592 1.88755 -0.0943087
18.015 0.52592 -1.88755 -0.0943087
17.9085 0.544691 1.88755 -0.095171
17.9085 0.544691 -1.88755 -0.095171
17.7996 0.563878 1.88755 -0.0960608
17.7996 0.563878 -1.88755 -0.0960608
17.6883 0.583487 1.88755 -0.096979
17.6883 0.583487 -1.88755 -0.096979
17.5746 0.60353 1.88755 -0.0979269
17.5746 0.60353 -1.88755 -0.0979269
17.4583 0.624014 1.88755 -0.0989056
17.4583 0.624014 -1.88755 -0.0989056
17.3395 0.644951 1.88755 -0.0999163
17.3395 0.644951 -1.88755 -0.0999163
17.218 0.66635 1.88755 -0.10096
17.218 0.66635 -1.88755 -0.10096
17.0939 0.688222 1.88755 -0.102039
17.0939 0.688222 -1.88755 -0.102039
16.967 0.710576 1.88755 -0.103154
16.967 0.710576 -1.88755 -0.103154
16.8373 0.733423 1.88755 -0.104307
16.8373 0.733423 -1.88755 -0.104307
16.7048 0.756775 1.88755 -0.105499
16.7048 0.756775 -1.88755 -0.105499
16.5693 0.780643 1.88755 -0.106733
16.5693 0.780643 -1.88755 -0.106733
16.4309 0.805037 1.88755 -0.10801
16.4309 0.805037 -1.88755 -0.10801
16.2894 0.829969 1.88755 -0.109332
16.2894 0.829969 -1.88755 -0.109332
16.1447 0.855452 1.88755 -0.110701
16.1447 0.855452 -1.88755 -0.110701
15.9969 0.881498 1.88755 -0.112121
15.9969 0.881498 -1.88755 -0.112121
15.8458 0.908118 1.88755 -0.113592
15.8458 0.908118 -1.88755 -0.113592
15.6914 0.935326 1.88755 -0.115118
15.6914 0.935326 -1.88755 -0.115118
15.5336 0.963134 1.88755 -0.116702
15.5336 0.963134 -1.88755 -0.116702
15.3722 0.991557 1.88755 -0.118347
15.3722 0.991557 -1.88755 -0.118347
15.2074 1.02061 1.88755 -0.120056
15.2074 1.02061 -1.88755 -0.120056
15.0389 1.0503 1.88755 -0.121832
15.0389 1.0503 -1.88755 -0.121832
14.8666 1.08064 1.88755 -0.12368
14.8666 1.08064 -1.88755 -0.12368
14.6906 1.11166 1.88755 -0.125603
14.6906 1.11166 -1.88755 -0.125603
14.5107 1.14336 1.88755 -0.127607
14.5107 1.14336 -1.88755 -0.127607
14.3268 1.17576 1.88755 -0.129695
14.3268 1.17576 -1.88755 -0.129695
14.1388 1.20888 1.88755 -0.131873
14.1388 1.20888 -1.88755 -0.131873
13.9467 1.24272 1.88755 -0.134146
13.9467 1.24272 -1.88755 -0.134146
13.7504 1.27731 1.88755 -0.136521
13.7504 1.27731 -1.88755 -0.136521
13.5497 1.31267 1.88755 -0.139003
13.5497 1.31267 -1.88755 -0.139003
13.3446 1.34881 1.88755 -0.141601
13.3446 1.34881 -1.88755 -0.141601
13.135 1.38574 1.88755 -0.144321
13.135 1.38574 -1.88755 -0.144321
12.9207 1.42349 1.88755 -0.147174
12.9207 1.42349 -1.88755 -0.147174
12.7017 1.46208 1.88755 -0.150168
12.7017 1.46208 -1.88755 -0.150168
12.4779 1.50151 1.88755 -0.153315
12.4779 1.50151 -1.88755 -0.153315
12.2491 1.54182 1.88755 -0.156627
12.2491 1.54182 -1.88755 -0.156627
12.0153 1.58301 1.88755 -0.160116
12.0153 1.58301 -1.88755 -0.160116
11.7763 1.62512 1.88755 -0.163797
11.7763 1.62512 -1.88755 -0.163797
11.5321 1.66815 1.88755 -0.167685
11.5321 1.66815 -1.88755 -0.167685
11.2825 1.71214 1.88755 -0.171799
11.2825 1.71214 -1.88755 -0.171799
11.0273 1.75709 1.88755 -0.176159
11.0273 1.75709 -1.88755 -0.176159
10.7665 1.80304 1.88755 -0.180788
10.7665 1.80304 -1.88755 -0.180788
10.5 1.85 1.88755 -0.185712
10.5 1.85 -1.88755 -0.185712
10.2335 1.89696 1.88755 -0.190904
10.2335 1.89696 -1.88755 -0.190904
9.97268 1.94291 1.88755 -0.196264
9.97268 1.94291 -1.88755 -0.196264
9.71754 1.98786 1.88755 -0.201739
9.71754 1.98786 -1.88755 -0.201739
9.4679 2.03185 1.88755 -0.207332
9.4679 2.03185 -1.88755 -0.207332
9.22365 2.07488 1.88755 -0.213048
9.22365 2.07488 -1.88755 -0.213048
8.98468 2.11699 1.88755 -0.218888
8.98468 2.11699 -1.88755 -0.218888
8.75087 2.15818 1.88755 -0.224857
8.75087 2.15818 -1.88755 -0.224857
8.5221 2.19849 1.88755 -0.230956
8.5221 2.19849 -1.88755 -0.230956
8.29828 2.23792 1.88755 -0.23719
8.29828 2.23792 -1.88755 -0.23719
8.0793 2.27651 1.88755 -0.243563
8.0793 2.27651 -1.88755 -0.243563
7.86504 2.31426 1.88755 -0.25008
7.86504 2.31426 -1.88755 -0.25008
7.6554 2.35119 1.88755 -0.256745
7.6554 2.35119 -1.88755 -0.256745
7.4503 2.38733 1.88755 -0.263565
7.4503 2.38733 -1.88755 -0.263565
7.24963 2.42269 1.88755 -0.270542
7.24963 2.42269 -1.88755 -0.270542
7.05328 2.45728 1.88755 -0.277684
7.05328 2.45728 -1.88755 -0.277684
6.86118 2.49112 1.88755 -0.284992
6.86118 2.49112 -1.88755 -0.284992
6.67323 2.52424 1.88755 -0.292474
6.67323 2.52424 -1.88755 -0.292474
6.48934 2.55664 1.88755 -0.300131
6.48934 2.55664 -1.88755 -0.300131
6.30942 2.58834 1.88755 -0.307969
6.30942 2.58834 -1.88755 -0.307969
6.13338 2.61936 1.88755 -0.315993
6.13338 2.61936 -1.88755 -0.315993
5.96114 2.6497 1.88755 -0.324208
5.96114 2.6497 -1.88755 -0.324208
5.79263 2.67939 1.88755 -0.332619
5.79263 2.67939 -1.88755 -0.332619
5.62775 2.70844 1.88755 -0.341229
5.62775 2.70844 -1.88755 -0.341229
5.46644 2.73687 1.88755 -0.35004
5.46644 2.73687 -1.88755 -0.35004
5.30861 2.76467 1.88755 -0.35906
5.30861 2.76467 -1.88755 -0.35906
5.15418 2.79188 1.88755 -0.36829
5.15418 2.79188 -1.88755 -0.36829
5.0031 2.8185 1.88755 -0.377733
5.0031 2.8185 -1.88755 -0.377733
4.85527 2.84455 1.88755 -0.387395
4.85527 2.84455 -1.88755 -0.387395
4.71064 2.87003 1.88755 -0.397283
4.71064 2.87003 -1.88755 -0.397283
4.56913 2.89496 1.88755 -0.407394
4.56913 2.89496 -1.88755 -0.407394
4.43067 2.91936 1.88755 -0.417734
4.43067 2.91936 -1.88755 -0.417734
4.29521 2.94322 1.88755 -0.42831
4.29521 2.94322 -1.88755 -0.42831
4.16267 2.96658 1.88755 -0.439123
4.16267 2.96658 -1.88755 -0.439123
4.033 2.98942 1.88755 -0.450175
4.033 2.98942 -1.88755 -0.450175
3.90612 3.01178 1.88755 -0.46147
3.90612 3.01178 -1.88755 -0.46147
3.78199 3.03365 1.88755 -0.473015
3.78199 3.03365 -1.88755 -0.473015
3.66053 3.05505 1.88755 -0.484807
3.66053 3.05505 -1.88755 -0.484807
3.5417 3.07599 1.88755 -0.496849
3.5417 3.07599 -1.88755 -0.496849
3.42544 3.09647 1.88755 -0.509148
3.42544 3.09647 -1.88755 -0.509148
3.31168 3.11651 1.88755 -0.521702
3.31168 3.11651 -1.88755 -0.521702
3.20039 3.13612 1.88755 -0.534507
3.20039 3.13612 -1.88755 -0.534507
3.09149 3.15531 1.88755 -0.547567
3.09149 3.15531 -1.88755 -0.547567
2.98495 3.17408 1.88755 -0.560883
2.98495 3.17408 -1.88755 -0.560883
2.88071 3.19245 1.88755 -0.574444
2.88071 3.19245 -1.88755 -0.574444
2.77872 3.21042 1.88755 -0.588263
2.77872 3.21042 -1.88755 -0.588263
2.67893 3.228 1.88755 -0.602347
2.67893 3.228 -1.88755 -0.602347
2.5813 3.2452 1.88755 -0.616686
2.5813 3.2452 -1.88755 -0.616686
2.48577 3.26203 1.88755 -0.631294
2.48577 3.26203 -1.88755 -0.631294
2.39231 3.2785 1.88755 -0.64618
2.39231 3.2785 -1.88755 -0.64618
2.30087 3.29461 1.88755 -0.661331
2.30087 3.29461 -1.88755 -0.661331
2.2114 3.31037 1.88755 -0.676768
2.2114 3.31037 -1.88755 -0.676768
2.12387 3.3258 1.88755 -0.692496
2.12387 3.3258 -1.88755 -0.692496
2.03822 3.34088 1.88755 -0.708508
2.03822 3.34088 -1.88755 -0.708508
1.95442 3.35565 1.88755 -0.724831
1.95442 3.35565 -1.88755 -0.724831
1.87244 3.37009 1.88755 -0.741457
1.87244 3.37009 -1.88755 -0.741457
1.79222 3.38423 1.88755 -0.758403
1.79222 3.38423 -1.88755 -0.758403
1.71374 3.39806 1.88755 -0.775689
1.71374 3.39806 -1.88755 -0.775689
1.63695 3.41158 1.88755 -0.79331
1.63695 3.41158 -1.88755 -0.79331
1.56182 3.42482 1.88755 -0.811305
1.56182 3.42482 -1.88755 -0.811305
1.48831 3.43777 1.88755 -0.829673
1.48831 3.43777 -1.88755 -0.829673
1.41639 3.45044 1.88755 -0.848452
1.41639 3.45044 -1.88755 -0.848452
1.34603 3.46284 1.88755 -0.867657
1.34603 3.46284 -1.88755 -0.867657
1.27718 3.47497 1.88755 -0.88733
1.27718 3.47497 -1.88755 -0.88733
1.20982 3.48684 1.88755 -0.907506
1.20982 3.48684 -1.88755 -0.907506
1.14391 3.49845 1.88755 -0.92823
1.14391 3.49845 -1.88755 -0.92823
1.07943 3.50981 1.88755 -0.949541
1.07943 3.50981 -1.88755 -0.949541
1.01634 3.52093 1.88755 -0.971514
1.01634 3.52093 -1.88755 -0.971514
0.954614 3.53181 1.88755 -0.994141
0.954614 3.53181 -1.88755 -0.994141
0.89422 3.54245 1.88755 -1.01736
0.89422 3.54245 -1.88755 -1.01736
0.83513 3.55286 1.88755 -1.04187
0.83513 3.55286 -1.88755 -1.04187
0.775596 3.56316 1.88755 -1.0665
0.775596 3.56316 -1.88755 -1.0665
0.716 3.57308 1.88755 -1.09033
0.716 3.57308 -1.88755 -1.09033
0.656344 3.58264 1.88755 -1.11415
0.656344 3.58264 -1.88755 -1.11415
0.596628 3.59182 1.88755 -1.13751
0.596628 3.59182 -1.88755 -1.13751
0.536857 3.60063 1.88755 -1.16045
0.536857 3.60063 -1.88755 -1.16045
0.477032 3.60907 1.88755 -1.18284
0.477032 3.60907 -1.88755 -1.18284
0.417156 3.61714 1.88755 -1.20463
0.417156 3.61714 -1.88755 -1.20463
0.357231 3.62483 1.88755 -1.22574
0.357231 3.62483 -1.88755 -1.22574
0.297259 3.63215 1.88755 -1.24609
0.297259 3.63215 -1.88755 -1.24609
0.237242 3.6391 1.88755 -1.26561
0.237242 3.6391 -1.88755 -1.26561
0.177183 3.64567 1.88755 -1.28421
0.177183 3.64567 -1.88755 -1.28421
0.117085 3.65187 1.88755 -1.30185
0.117085 3.65187 -1.88755 -1.30185
0.056949 3.6577 1.88755 -1.31849
0.056949 3.6577 -1.88755 -1.31849
-0.00322198 3.66314 1.88755 -1.33408
-0.00322198 3.66314 -1.88755 -1.33408
-0.0634257 3.66822 1.88755 -1.34854
-0.0634257 3.66822 -1.88755 -1.34854
-0.12366 3.67292 1.88755 -1.36182
-0.12366 3.67292 -1.88755 -1.36182
-0.183922 3.67724 1.88755 -1.37382
-0.183922 3.67724 -1.88755 -1.37382
-0.24421 3.68119 1.88755 -1.3845
-0.24421 3.68119 -1.88755 -1.3845
-0.304522 3.68476 1.88755 -1.39376
-0.304522 3.68476 -1.88755 -1.39376
-0.364854 3.68796 1.88755 -1.40153
-0.364854 3.68796 -1.88755 -1.40153
-0.425206 3.69078 1.88755 -1.40772
-0.425206 3.69078 -1.88755 -1.40772
-0.485573 3.69323 1.88755 -1.41224
-0.485573 3.69323 -1.88755 -1.41224
-0.545955 3.6953 1.88755 -1.41495
-0.545955 3.6953 -1.88755 -1.41495
-0.606349 3.69699 1.88755 -1.41569
-0.606349 3.69699 -1.88755 -1.41569
-0.666752 3.69831 1.88755 -1.41431
-0.666752 3.69831 -1.88755 -1.41431
-0.727161 3.69925 1.88755 -1.41093
-0.727161 3.69925 -1.88755 -1.41093
-0.787576 3.69981 1.88755 -1.40491
-0.787576 3.69981 -1.88755 -1.40491
-0.847993 3.7 1.88755 -1.39351
-0.847993 3.7 -1.88755 -1.39351
-0.907993 3.7 1.88755 -1.38188
-0.907993 3.7 -1.88755 -1.38188
-0.970739 3.7 1.88755 -1.37383
-0.970739 3.7 -1.88755 -1.37383
-1.03636 3.7 1.88755 -1.36676
-1.03636 3.7 -1.88755 -1.36676
-1.10498 3.7 1.88755 -1.36078
-1.10498 3.7 -1.88755 -1.36078
-1.17674 3.7 1.88755 -1.35549
-1.17674 3.7 -1.88755 -1.35549
-1.25179 3.7 1.88755 -1.35082
-1.25179 3.7 -1.88755 -1.35082
-1.33028 3.7 1.88755 -1.34662
-1.33028 3.7 -1.88755 -1.34662
-1.41235 3.7 1.88755 -1.34282
-1.41235 3.7 -1.88755 -1.34282
-1.49818 3.7 1.88755 -1.33933
-1.49818 3.7 -1.88755 -1.33933
-1.58795 3.7 1.88755 -1.33611
-1.58795 3.7 -1.88755 -1.33611
-1.68182 3.7 1.88755 -1.33309
-1.68182 3.7 -1.88755 -1.33309
-1.77998 3.7 1.88755 -1.33024
-1.77998 3.7 -1.88755 -1.33024
-1.88265 3.7 1.88755 -1.3275
-1.88265 3.7 -1.88755 -1.3275
-1.99001 3.7 1.88755 -1.32486
-1.99001 3.7 -1.88755 -1.32486
-2.10228 3.7 1.88755 -1.32227
-2.10228 3.7 -1.88755 -1.32227
-2.2197 3.7 1.88755 -1.3197
-2.2197 3.7 -1.88755 -1.3197
-2.34248 3.7 1.88755 -1.31713
-2.34248 3.7 -1.88755 -1.31713
-2.47089 3.7 1.88755 -1.31454
-2.47089 3.7 -1.88755 -1.31454
-2.60518 3.7 1.88755 -1.31191
-2.60518 3.7 -1.88755 -1.31191
-2.74561 3.7 1.88755 -1.30921
-2.74561 3.7 -1.88755 -1.30921
-2.89248 3.7 1.88755 -1.30644
-2.89248 3.7 -1.88755 -1.30644
-3.04606 3.7 1.88755 -1.30357
-3.04606 3.7 -1.88755 -1.30357
-3.20668 3.7 1.88755 -1.30059
-3.20668 3.7 -1.88755 -1.30059
-3.37464 3.7 1.88755 -1.2975
-3.37464 3.7 -1.88755 -1.2975
-3.5503 3.7 1.88755 -1.29428
-3.5503 3.7 -1.88755 -1.29428
-3.73399 3.7 1.88755 -1.29092
-3.73399 3.7 -1.88755 -1.29092
-3.9261 3.7 1.88755 -1.28742
-3.9261 3.7 -1.88755 -1.28742
-4.127 3.7 1.88755 -1.28376
-4.127 3.7 -1.88755 -1.28376
-4.33709 3.7 1.88755 -1.27994
-4.33709 3.7 -1.88755 -1.27994
-4.5568 3.7 1.88755 -1.27594
-4.5568 3.7 -1.88755 -1.27594
-4.77651 3.7 1.88755 -1.27185
-4.77651 3.7 -1.88755 -1.27185
-4.99551 3.7 1.88755 -1.26778
-4.99551 3.7 -1.88755 -1.26778
-5.21381 3.7 1.88755 -1.26371
-5.21381 3.7 -1.88755 -1.26371
-5.43139 3.7 1.88755 -1.25966
-5.43139 3.7 -1.88755 -1.25966
-5.64827 3.7 1.88755 -1.25562
-5.64827 3.7 -1.88755 -1.25562
-5.86445 3.7 1.88755 -1.2516
-5.86445 3.7 -1.88755 -1.2516
-6.07993 3.7 1.88755 -1.24759
-6.07993 3.7 -1.88755 -1.24759
-6.29471 3.7 1.88755 -1.24359
-6.29471 3.7 -1.88755 -1.24359
-6.5088 3.7 1.88755 -1.2396
-6.5088 3.7 -1.88755 -1.2396
-6.72219 3.7 1.88755 -1.23563
-6.72219 3.7 -1.88755 -1.23563
-6.9349 3.7 1.88755 -1.23167
-6.9349 3.7 -1.88755 -1.23167
-7.14691 3.7 1.88755 -1.22773
-7.14691 3.7 -1.88755 -1.22773
-7.35824 3.7 1.88755 -1.22379
-7.35824 3.7 -1.88755 -1.22379
-7.56889 3.7 1.88755 -1.21987
-7.56889 3.7 -1.88755 -1.21987
-7.77885 3.7 1.88755 -1.21596
-7.77885 3.7 -1.88755 -1.21596
-7.98813 3.7 1.88755 -1.21207
-7.98813 3.7 -1.88755 -1.21207
-8.19674 3.7 1.88755 -1.20819
-8.19674 3.7 -1.88755 -1.20819
-8.40467 3.7 1.88755 -1.20432
-8.40467 3.7 -1.88755 -1.20432
-8.61193 3.7 1.88755 -1.20046
-8.61193 3.7 -1.88755 -1.20046
-8.81852 3.7 1.88755 -1.19661
-8.81852 3.7 -1.88755 -1.19661
-9.02444 3.7 1.88755 -1.19278
-9.02444 3.7 -1.88755 -1.19278
-9.2297 3.7 1.88755 -1.18896
-9.2297 3.7 -1.88755 -1.18896
-9.43428 3.7 1.88755 -1.18515
-9.43428 3.7 -1.88755 -1.18515
-9.63821 3.7 1.88755 -1.18136
-9.63821 3.7 -1.88755 -1.18136
-9.84148 3.7 1.88755 -1.17758
-9.84148 3.7 -1.88755 -1.17758
-10.0441 3.7 1.88755 -1.17381
-10.0441 3.7 -1.88755 -1.17381
-10.246 3.7 1.88755 -1.17005
-10.246 3.7 -1.88755 -1.17005
-10.4473 3.7 1.88755 -1.16631
-10.4473 3.7 -1.88755 -1.16631
-10.648 3.7 1.88755 -1.16258
-10.648 3.7 -1.88755 -1.16258
-10.848 3.7 1.88755 -1.15877
-10.848 3.7 -1.88755 -1.15877
-59.848 3.7 1.88755 -0.234035
-60.848 3.7 1.88755 -0.234035
-60.848 3.7 -1.88755 -0.234035
-59.848 3.7 -1.88755 -0.234035
-58.8506 3.7 1.88755 -0.252525
-58.8506 3.7 -1.88755 -0.252525
-57.8559 3.7 1.88755 -0.271004
-57.8559 3.7 -1.88755 -0.271004
-56.8639 3.7 1.88755 -0.289485
-56.8639 3.7 -1.88755 -0.289485
-55.8744 3.7 1.88755 -0.307955
-55.8744 3.7 -1.88755 -0.307955
-54.8876 3.7 1.88755 -0.326393
-54.8876 3.7 -1.88755 -0.326393
-53.9034 3.7 1.88755 -0.3448
-53.9034 3.7 -1.88755 -0.3448
-52.9218 3.7 1.88755 -0.363174
-52.9218 3.7 -1.88755 -0.363174
-51.9429 3.7 1.88755 -0.381512
-51.9429 3.7 -1.88755 -0.381512
-50.9665 3.7 1.88755 -0.39982
-50.9665 3.7 -1.88755 -0.39982
-49.9927 3.7 1.88755 -0.418092
-49.9927 3.7 -1.88755 -0.418092
-49.0215 3.7 1.88755 -0.436309
-49.0215 3.7 -1.88755 -0.436309
-48.0528 3.7 1.88755 -0.454476
-48.0528 3.7 -1.88755 -0.454476
-47.0867 3.7 1.88755 -0.4726
-47.0867 3.7 -1.88755 -0.4726
-46.1232 3.7 1.88755 -0.490674
-46.1232 3.7 -1.88755 -0.490674
-45.1622 3.7 1.88755 -0.508703
-45.1622 3.7 -1.88755 -0.508703
-44.2038 3.7 1.88755 -0.526683
-44.2038 3.7 -1.88755 -0.526683
-43.248 3.7 1.88755 -0.544603
-43.248 3.7 -1.88755 -0.544603
-42.2946 3.7 1.88755 -0.562467
-42.2946 3.7 -1.88755 -0.562467
-41.3438 3.7 1.88755 -0.580282
-41.3438 3.7 -1.88755 -0.580282
-40.3955 3.7 1.88755 -0.598044
-40.3955 3.7 -1.88755 -0.598044
-39.4497 3.7 1.88755 -0.615755
-39.4497 3.7 -1.88755 -0.615755
-38.5065 3.7 1.88755 -0.633415
-38.5065 3.7 -1.88755 -0.633415
-37.5657 3.7 1.88755 -0.651016
-37.5657 3.7 -1.88755 -0.651016
-36.6274 3.7 1.88755 -0.668563
-36.6274 3.7 -1.88755 -0.668563
-35.6916 3.7 1.88755 -0.686057
-35.6916 3.7 -1.88755 -0.686057
-34.7583 3.7 1.88755 -0.703499
-34.7583 3.7 -1.88755 -0.703499
-33.8275 3.7 1.88755 -0.72089
-33.8275 3.7 -1.88755 -0.72089
-32.8991 3.7 1.88755 -0.738228
-32.8991 3.7 -1.88755 -0.738228
-31.9732 3.7 1.88755 -0.755514
-31.9732 3.7 -1.88755 -0.755514
-31.0498 3.7 1.88755 -0.772747
-31.0498 3.7 -1.88755 -0.772747
-30.1288 3.7 1.88755 -0.78993
-30.1288 3.7 -1.88755 -0.78993
-29.2102 3.7 1.88755 -0.807061
-29.2102 3.7 -1.88755 -0.807061
-28.2941 3.7 1.88755 -0.824144
-28.2941 3.7 -1.88755 -0.824144
-27.3804 3.7 1.88755 -0.841179
-27.3804 3.7 -1.88755 -0.841179
-26.4667 3.7 1.88755 -0.858185
-26.4667 3.7 -1.88755 -0.858185
-25.5929 3.7 1.88755 -0.874816
-25.5929 3.7 -1.88755 -0.874816
-24.7573 3.7 1.88755 -0.890716
-24.7573 3.7 -1.88755 -0.890716
-23.9582 3.7 1.88755 -0.905917
-23.9582 3.7 -1.88755 -0.905917
-23.1941 3.7 1.88755 -0.920454
-23.1941 3.7 -1.88755 -0.920454
-22.4633 3.7 1.88755 -0.934353
-22.4633 3.7 -1.88755 -0.934353
-21.7645 3.7 1.88755 -0.947644
-21.7645 3.7 -1.88755 -0.947644
-21.0962 3.7 1.88755 -0.960353
-21.0962 3.7 -1.88755 -0.960353
-20.4571 3.7 1.88755 -0.972505
-20.4571 3.7 -1.88755 -0.972505
-19.8459 3.7 1.88755 -0.984124
-19.8459 3.7 -1.88755 -0.984124
-19.2615 3.7 1.88755 -0.995235
-19.2615 3.7 -1.88755 -0.995235
-18.7026 3.7 1.88755 -1.00586
-18.7026 3.7 -1.88755 -1.00586
-18.1681 3.7 1.88755 -1.01602
-18.1681 3.7 -1.88755 -1.01602
-17.6569 3.7 1.88755 -1.02573