# p  POINT_DATA 994
# x y z  p
76.848 4.7 1.88755 -3.16028e-05
77.848 4.7 1.88755 -3.16028e-05
77.848 4.7 -1.88755 -3.16028e-05
76.848 4.7 -1.88755 -3.16028e-05
75.8596 4.7 -1.88755 0.000456095
75.8596 4.7 1.88755 0.000456095
74.8826 4.7 -1.88755 0.000609427
74.8826 4.7 1.88755 0.000609427
73.9169 4.7 -1.88755 0.000904872
73.9169 4.7 1.88755 0.000904872
72.9624 4.7 -1.88755 0.00114598
72.9624 4.7 1.88755 0.00114598
72.019 4.7 -1.88755 0.00141159
72.019 4.7 1.88755 0.00141159
71.0865 4.7 -1.88755 0.00166486
71.0865 4.7 1.88755 0.00166486
70.1648 4.7 -1.88755 0.00192242
70.1648 4.7 1.88755 0.00192242
69.2537 4.7 -1.88755 0.00217474
69.2537 4.7 1.88755 0.00217474
68.3532 4.7 -1.88755 0.00242686
68.3532 4.7 1.88755 0.00242686
67.4632 4.7 -1.88755 0.00267515
67.4632 4.7 1.88755 0.00267515
66.5834 4.7 -1.88755 0.00292159
66.5834 4.7 1.88755 0.00292159
65.7138 4.7 -1.88755 0.00316441
65.7138 4.7 1.88755 0.00316441
64.8543 4.7 -1.88755 0.00340453
64.8543 4.7 1.88755 0.00340453
64.0048 4.7 -1.88755 0.00364092
64.0048 4.7 1.88755 0.00364092
63.1651 4.7 -1.88755 0.00387385
63.1651 4.7 1.88755 0.00387385
62.3351 4.7 -1.88755 0.00410265
62.3351 4.7 1.88755 0.00410265
61.5147 4.7 -1.88755 0.00432722
61.5147 4.7 1.88755 0.00432722
60.7038 4.7 -1.88755 0.00454707
60.7038 4.7 1.88755 0.00454707
59.9024 4.7 -1.88755 0.0047618
59.9024 4.7 1.88755 0.0047618
59.1102 4.7 -1.88755 0.0049707
59.1102 4.7 1.88755 0.0049707
58.3271 4.7 -1.88755 0.00517318
58.3271 4.7 1.88755 0.00517318
57.5532 4.7 -1.88755 0.00537035
57.5532 4.7 1.88755 0.00537035
56.7882 4.7 -1.88755 0.00556247
56.7882 4.7 1.88755 0.00556247
56.032 4.7 -1.88755 0.00574786
56.032 4.7 1.88755 0.00574786
55.2846 4.7 -1.88755 0.00592595
55.2846 4.7 1.88755 0.00592595
54.5459 4.7 -1.88755 0.0060964
54.5459 4.7 1.88755 0.0060964
53.8157 4.7 -1.88755 0.00625855
53.8157 4.7 1.88755 0.00625855
53.094 4.7 -1.88755 0.00641187
53.094 4.7 1.88755 0.00641187
52.3806 4.7 -1.88755 0.00655573
52.3806 4.7 1.88755 0.00655573
51.6755 4.7 -1.88755 0.00668931
51.6755 4.7 1.88755 0.00668931
50.9785 4.7 -1.88755 0.00681179
50.9785 4.7 1.88755 0.00681179
50.2897 4.7 -1.88755 0.00692249
50.2897 4.7 1.88755 0.00692249
49.6088 4.7 -1.88755 0.00702043
49.6088 4.7 1.88755 0.00702043
48.9358 4.7 -1.88755 0.00710468
48.9358 4.7 1.88755 0.00710468
48.2705 4.7 -1.88755 0.00717434
48.2705 4.7 1.88755 0.00717434
47.613 4.7 -1.88755 0.00722822
47.613 4.7 1.88755 0.00722822
46.9631 4.7 -1.88755 0.00726515
46.9631 4.7 1.88755 0.00726515
46.3207 4.7 -1.88755 0.00728402
46.3207 4.7 1.88755 0.00728402
45.6858 4.7 -1.88755 0.00728323
45.6858 4.7 1.88755 0.00728323
45.0582 4.7 -1.88755 0.00726131
45.0582 4.7 1.88755 0.00726131
44.4379 4.7 -1.88755 0.00721682
44.4379 4.7 1.88755 0.00721682
43.8248 4.7 -1.88755 0.00714792
43.8248 4.7 1.88755 0.00714792
43.2187 4.7 -1.88755 0.00705278
43.2187 4.7 1.88755 0.00705278
42.6197 4.7 -1.88755 0.00692958
42.6197 4.7 1.88755 0.00692958
42.0276 4.7 -1.88755 0.00677614
42.0276 4.7 1.88755 0.00677614
41.4424 4.7 -1.88755 0.00659019
41.4424 4.7 1.88755 0.00659019
40.8639 4.7 -1.88755 0.00636938
40.8639 4.7 1.88755 0.00636938
40.2922 4.7 -1.88755 0.00611118
40.2922 4.7 1.88755 0.00611118
39.727 4.7 -1.88755 0.00581297
39.727 4.7 1.88755 0.00581297
39.1685 4.7 -1.88755 0.00547189
39.1685 4.7 1.88755 0.00547189
38.6163 4.7 -1.88755 0.00508474
38.6163 4.7 1.88755 0.00508474
38.0706 4.7 -1.88755 0.00464843
38.0706 4.7 1.88755 0.00464843
37.5312 4.7 -1.88755 0.00415966
37.5312 4.7 1.88755 0.00415966
36.998 4.7 -1.88755 0.00361493
36.998 4.7 1.88755 0.00361493
36.4711 4.7 -1.88755 0.00301069
36.4711 4.7 1.88755 0.00301069
35.9502 4.7 -1.88755 0.00234321
35.9502 4.7 1.88755 0.00234321
35.4353 4.7 -1.88755 0.00160862
35.4353 4.7 1.88755 0.00160862
34.9264 4.7 -1.88755 0.000802699
34.9264 4.7 1.88755 0.000802699
34.4234 4.7 -1.88755 -7.92954e-05
34.4234 4.7 1.88755 -7.92954e-05
33.9204 4.7 -1.88755 -0.00104829
33.9204 4.7 1.88755 -0.00104829
33.4352 4.7 -1.88755 -0.00209408
33.4352 4.7 1.88755 -0.00209408
32.9672 4.7 -1.88755 -0.00319439
32.9672 4.7 1.88755 -0.00319439
32.5157 4.7 -1.88755 -0.00434865
32.5157 4.7 1.88755 -0.00434865
32.0803 4.7 -1.88755 -0.00555401
32.0803 4.7 1.88755 -0.00555401
31.6602 4.7 -1.88755 -0.00680675
31.6602 4.7 1.88755 -0.00680675
31.255 4.7 -1.88755 -0.00810307
31.255 4.7 1.88755 -0.00810307
30.8642 4.7 -1.88755 -0.00943885
30.8642 4.7 1.88755 -0.00943885
30.4871 4.7 -1.88755 -0.0108098
30.4871 4.7 1.88755 -0.0108098
30.1235 4.7 -1.88755 -0.0122114
30.1235 4.7 1.88755 -0.0122114
29.7727 4.7 -1.88755 -0.0136392
29.7727 4.7 1.88755 -0.0136392
29.4343 4.7 -1.88755 -0.0150885
29.4343 4.7 1.88755 -0.0150885
29.1079 4.7 -1.88755 -0.0165547
29.1079 4.7 1.88755 -0.0165547
28.793 4.7 -1.88755 -0.0180332
28.793 4.7 1.88755 -0.0180332
28.4893 4.7 -1.88755 -0.0195197
28.4893 4.7 1.88755 -0.0195197
28.1964 4.7 -1.88755 -0.0210098
28.1964 4.7 1.88755 -0.0210098
27.9138 4.7 -1.88755 -0.0224996
27.9138 4.7 1.88755 -0.0224996
27.6412 4.7 -1.88755 -0.0239852
27.6412 4.7 1.88755 -0.0239852
27.3783 4.7 -1.88755 -0.0254627
27.3783 4.7 1.88755 -0.0254627
27.1246 4.7 -1.88755 -0.026929
27.1246 4.7 1.88755 -0.026929
26.88 4.7 -1.88755 -0.0283807
26.88 4.7 1.88755 -0.0283807
26.644 4.7 -1.88755 -0.0298151
26.644 4.7 1.88755 -0.0298151
26.4164 4.7 -1.88755 -0.0312295
26.4164 4.7 1.88755 -0.0312295
26.1968 4.7 -1.88755 -0.0326216
26.1968 4.7 1.88755 -0.0326216
25.985 4.7 -1.88755 -0.0339895
25.985 4.7 1.88755 -0.0339895
25.7807 4.7 -1.88755 -0.0353313
25.7807 4.7 1.88755 -0.0353313
25.5836 4.7 -1.88755 -0.0366455
25.5836 4.7 1.88755 -0.0366455
25.3935 4.7 -1.88755 -0.0379308
25.3935 4.7 1.88755 -0.0379308
25.2101 4.7 -1.88755 -0.0391862
25.2101 4.7 1.88755 -0.0391862
25.0332 4.7 -1.88755 -0.0404109
25.0332 4.7 1.88755 -0.0404109
24.8626 4.7 -1.88755 -0.0416041
24.8626 4.7 1.88755 -0.0416041
24.698 4.7 -1.88755 -0.0427656
24.698 4.7 1.88755 -0.0427656
24.5393 4.7 -1.88755 -0.043895
24.5393 4.7 1.88755 -0.043895
24.3861 4.7 -1.88755 -0.0449921
24.3861 4.7 1.88755 -0.0449921
24.2384 4.7 -1.88755 -0.0460572
24.2384 4.7 1.88755 -0.0460572
24.0959 4.7 -1.88755 -0.0470902
24.0959 4.7 1.88755 -0.0470902
23.9585 4.7 -1.88755 -0.0480915
23.9585 4.7 1.88755 -0.0480915
23.8259 4.7 -1.88755 -0.0490615
23.8259 4.7 1.88755 -0.0490615
23.698 4.7 -1.88755 -0.0500005
23.698 4.7 1.88755 -0.0500005
23.5746 4.7 -1.88755 -0.0509092
23.5746 4.7 1.88755 -0.0509092
23.4557 4.7 -1.88755 -0.0517879
23.4557 4.7 1.88755 -0.0517879
23.3409 4.7 -1.88755 -0.0526375
23.3409 4.7 1.88755 -0.0526375
23.2302 4.7 -1.88755 -0.0534586
23.2302 4.7 1.88755 -0.0534586
23.1234 4.7 -1.88755 -0.0542518
23.1234 4.7 1.88755 -0.0542518
23.0203 4.7 -1.88755 -0.055018
23.0203 4.7 1.88755 -0.055018
22.921 4.7 -1.88755 -0.0557577
22.921 4.7 1.88755 -0.0557577
22.8251 4.7 -1.88755 -0.0564719
22.8251 4.7 1.88755 -0.0564719
22.7326 4.7 -1.88755 -0.0571612
22.7326 4.7 1.88755 -0.0571612
22.6435 4.7 -1.88755 -0.0578265
22.6435 4.7 1.88755 -0.0578265
22.5574 4.7 -1.88755 -0.0584684
22.5574 4.7 1.88755 -0.0584684
22.4744 4.7 -1.88755 -0.0590878
22.4744 4.7 1.88755 -0.0590878
22.3944 4.7 -1.88755 -0.0596854
22.3944 4.7 1.88755 -0.0596854
22.3172 4.7 -1.88755 -0.0602618
22.3172 4.7 1.88755 -0.0602618
22.2427 4.7 -1.88755 -0.0608179
22.2427 4.7 1.88755 -0.0608179
22.1708 4.7 -1.88755 -0.0613543
22.1708 4.7 1.88755 -0.0613543
22.1015 4.7 -1.88755 -0.0618717
22.1015 4.7 1.88755 -0.0618717
22.0347 4.7 -1.88755 -0.0623707
22.0347 4.7 1.88755 -0.0623707
21.9702 4.7 -1.88755 -0.0628519
21.9702 4.7 1.88755 -0.0628519
21.908 4.7 -1.88755 -0.0633161
21.908 4.7 1.88755 -0.0633161
21.848 4.7 -1.88755 -0.063764
21.848 4.7 1.88755 -0.063764
21.7879 4.7 -1.88755 -0.064204
21.7879 4.7 1.88755 -0.064204
21.7278 4.7 -1.88755 -0.0646443
21.7278 4.7 1.88755 -0.0646443
21.6677 4.7 -1.88755 -0.0650847
21.6677 4.7 1.88755 -0.0650847
21.6075 4.7 -1.88755 -0.0655253
21.6075 4.7 1.88755 -0.0655253
21.5474 4.7 -1.88755 -0.065966
21.5474 4.7 1.88755 -0.065966
21.4873 4.7 -1.88755 -0.0664069
21.4873 4.7 1.88755 -0.0664069
21.4272 4.7 -1.88755 -0.066848
21.4272 4.7 1.88755 -0.066848
21.3671 4.7 -1.88755 -0.0672893
21.3671 4.7 1.88755 -0.0672893
21.307 4.7 -1.88755 -0.0677308
21.307 4.7 1.88755 -0.0677308
21.2469 4.7 -1.88755 -0.0681725
21.2469 4.7 1.88755 -0.0681725
21.1868 4.7 -1.88755 -0.0686144
21.1868 4.7 1.88755 -0.0686144
21.1267 4.7 -1.88755 -0.0690565
21.1267 4.7 1.88755 -0.0690565
21.0665 4.7 -1.88755 -0.0694988
21.0665 4.7 1.88755 -0.0694988
21.0064 4.7 -1.88755 -0.0699414
21.0064 4.7 1.88755 -0.0699414
20.9463 4.7 -1.88755 -0.0703844
20.9463 4.7 1.88755 -0.0703844
20.8862 4.7 -1.88755 -0.0708277
20.8862 4.7 1.88755 -0.0708277
20.8261 4.7 -1.88755 -0.0712713
20.8261 4.7 1.88755 -0.0712713
20.766 4.7 -1.88755 -0.0717154
20.766 4.7 1.88755 -0.0717154
20.7059 4.7 -1.88755 -0.0721599
20.7059 4.7 1.88755 -0.0721599
20.6458 4.7 -1.88755 -0.0726049
20.6458 4.7 1.88755 -0.0726049
20.5857 4.7 -1.88755 -0.0730504
20.5857 4.7 1.88755 -0.0730504
20.5255 4.7 -1.88755 -0.0734965
20.5255 4.7 1.88755 -0.0734965
20.4654 4.7 -1.88755 -0.0739431
20.4654 4.7 1.88755 -0.0739431
20.4053 4.7 -1.88755 -0.0743904
20.4053 4.7 1.88755 -0.0743904
20.3452 4.7 -1.88755 -0.0748384
20.3452 4.7 1.88755 -0.0748384
20.2851 4.7 -1.88755 -0.0752872
20.2851 4.7 1.88755 -0.0752872
20.225 4.7 -1.88755 -0.0757364
20.225 4.7 1.88755 -0.0757364
20.1649 4.7 -1.88755 -0.0761862
20.1649 4.7 1.88755 -0.0761862
20.1049 4.7 -1.88755 -0.0766368
20.1049 4.7 1.88755 -0.0766368
20.0436 4.7 -1.88755 -0.0770929
20.0436 4.7 1.88755 -0.0770929
19.9809 4.7 -1.88755 -0.0775596
19.9809 4.7 1.88755 -0.0775596
19.9169 4.7 -1.88755 -0.0780375
19.9169 4.7 1.88755 -0.0780375
19.8516 4.7 -1.88755 -0.0785268
19.8516 4.7 1.88755 -0.0785268
19.7848 4.7 -1.88755 -0.0790279
19.7848 4.7 1.88755 -0.0790279
19.7165 4.7 -1.88755 -0.0795412
19.7165 4.7 1.88755 -0.0795412
19.6468 4.7 -1.88755 -0.080067
19.6468 4.7 1.88755 -0.080067
19.5755 4.7 -1.88755 -0.0806058
19.5755 4.7 1.88755 -0.0806058
19.5027 4.7 -1.88755 -0.081158
19.5027 4.7 1.88755 -0.081158
19.4284 4.7 -1.88755 -0.0817241
19.4284 4.7 1.88755 -0.0817241
19.3524 4.7 -1.88755 -0.0823044
19.3524 4.7 1.88755 -0.0823044
19.2747 4.7 -1.88755 -0.0828996
19.2747 4.7 1.88755 -0.0828996
19.1954 4.7 -1.88755 -0.0835102
19.1954 4.7 1.88755 -0.0835102
19.1144 4.7 -1.88755 -0.0841366
19.1144 4.7 1.88755 -0.0841366
19.0315 4.7 -1.88755 -0.0847795
19.0315 4.7 1.88755 -0.0847795
18.9469 4.7 -1.88755 -0.0854395
18.9469 4.7 1.88755 -0.0854395
18.8605 4.7 -1.88755 -0.0861172
18.8605 4.7 1.88755 -0.0861172
18.7722 4.7 -1.88755 -0.0868134
18.7722 4.7 1.88755 -0.0868134
18.6819 4.7 -1.88755 -0.0875286
18.6819 4.7 1.88755 -0.0875286
18.5898 4.7 -1.88755 -0.0882637
18.5898 4.7 1.88755 -0.0882637
18.4956 4.7 -1.88755 -0.0890195
18.4956 4.7 1.88755 -0.0890195
18.3993 4.7 -1.88755 -0.0897968
18.3993 4.7 1.88755 -0.0897968
18.301 4.7 -1.88755 -0.0905965
18.301 4.7 1.88755 -0.0905965
18.2005 4.7 -1.88755 -0.0914195
18.2005 4.7 1.88755 -0.0914195
18.0979 4.7 -1.88755 -0.0922668
18.0979 4.7 1.88755 -0.0922668
17.993 4.7 -1.88755 -0.0931393
17.993 4.7 1.88755 -0.0931393
17.8859 4.7 -1.88755 -0.0940383
17.8859 4.7 1.88755 -0.0940383
17.7764 4.7 -1.88755 -0.0949649
17.7764 4.7 1.88755 -0.0949649
17.6645 4.7 -1.88755 -0.0959203
17.6645 4.7 1.88755 -0.0959203
17.5502 4.7 -1.88755 -0.0969057
17.5502 4.7 1.88755 -0.0969057
17.4335 4.7 -1.88755 -0.0979225
17.4335 4.7 1.88755 -0.0979225
17.3142 4.7 -1.88755 -0.0989722
17.3142 4.7 1.88755 -0.0989722
17.1923 4.7 -1.88755 -0.100056
17.1923 4.7 1.88755 -0.100056
17.0678 4.7 -1.88755 -0.101176
17.0678 4.7 1.88755 -0.101176
16.9405 4.7 -1.88755 -0.102334
16.9405 4.7 1.88755 -0.102334
16.8105 4.7 -1.88755 -0.103531
16.8105 4.7 1.88755 -0.103531
16.6777 4.7 -1.88755 -0.10477
16.6777 4.7 1.88755 -0.10477
16.542 4.7 -1.88755 -0.106052
16.542 4.7 1.88755 -0.106052
16.4034 4.7 -1.88755 -0.10738
16.4034 4.7 1.88755 -0.10738
16.2617 4.7 -1.88755 -0.108757
16.2617 4.7 1.88755 -0.108757
16.117 4.7 -1.88755 -0.110183
16.117 4.7 1.88755 -0.110183
15.9691 4.7 -1.88755 -0.111664
15.9691 4.7 1.88755 -0.111664
15.818 4.7 -1.88755 -0.1132
15.818 4.7 1.88755 -0.1132
15.6636 4.7 -1.88755 -0.114795
15.6636 4.7 1.88755 -0.114795
15.5059 4.7 -1.88755 -0.116453
15.5059 4.7 1.88755 -0.116453
15.3448 4.7 -1.88755 -0.118177
15.3448 4.7 1.88755 -0.118177
15.1801 4.7 -1.88755 -0.11997
15.1801 4.7 1.88755 -0.11997
15.0119 4.7 -1.88755 -0.121838
15.0119 4.7 1.88755 -0.121838
14.84 4.7 -1.88755 -0.123783
14.84 4.7 1.88755 -0.123783
14.6644 4.7 -1.88755 -0.125811
14.6644 4.7 1.88755 -0.125811
14.485 4.7 -1.88755 -0.127928
14.485 4.7 1.88755 -0.127928
14.3017 4.7 -1.88755 -0.130138
14.3017 4.7 1.88755 -0.130138
14.1144 4.7 -1.88755 -0.132448
14.1144 4.7 1.88755 -0.132448
13.9231 4.7 -1.88755 -0.134863
13.9231 4.7 1.88755 -0.134863
13.7276 4.7 -1.88755 -0.137393
13.7276 4.7 1.88755 -0.137393
13.5278 4.7 -1.88755 -0.140043
13.5278 4.7 1.88755 -0.140043
13.3237 4.7 -1.88755 -0.142822
13.3237 4.7 1.88755 -0.142822
13.1152 4.7 -1.88755 -0.14574
13.1152 4.7 1.88755 -0.14574
12.9022 4.7 -1.88755 -0.148807
12.9022 4.7 1.88755 -0.148807
12.6845 4.7 -1.88755 -0.152033
12.6845 4.7 1.88755 -0.152033
12.4621 4.7 -1.88755 -0.155431
12.4621 4.7 1.88755 -0.155431
12.2349 4.7 -1.88755 -0.159015
12.2349 4.7 1.88755 -0.159015
12.0027 4.7 -1.88755 -0.162798
12.0027 4.7 1.88755 -0.162798
11.7655 4.7 -1.88755 -0.166797
11.7655 4.7 1.88755 -0.166797
11.5232 4.7 -1.88755 -0.171031
11.5232 4.7 1.88755 -0.171031
11.2755 4.7 -1.88755 -0.175519
11.2755 4.7 1.88755 -0.175519
11.0226 4.7 -1.88755 -0.180284
11.0226 4.7 1.88755 -0.180284
10.7641 4.7 -1.88755 -0.18535
10.7641 4.7 1.88755 -0.18535
10.5 4.7 -1.88755 -0.190745
10.5 4.7 1.88755 -0.190745
10.2359 4.7 -1.88755 -0.196441
10.2359 4.7 1.88755 -0.196441
9.97744 4.7 -1.88755 -0.202329
9.97744 4.7 1.88755 -0.202329
9.72445 4.7 -1.88755 -0.208351
9.72445 4.7 1.88755 -0.208351
9.47684 4.7 -1.88755 -0.214511
9.47684 4.7 1.88755 -0.214511
9.2345 4.7 -1.88755 -0.220811
9.2345 4.7 1.88755 -0.220811
8.9973 4.7 -1.88755 -0.22725
8.9973 4.7 1.88755 -0.22725
8.76514 4.7 -1.88755 -0.233827
8.76514 4.7 1.88755 -0.233827
8.53792 4.7 -1.88755 -0.240547
8.53792 4.7 1.88755 -0.240547
8.31552 4.7 -1.88755 -0.247411
8.31552 4.7 1.88755 -0.247411
8.09785 4.7 -1.88755 -0.254422
8.09785 4.7 1.88755 -0.254422
7.8848 4.7 -1.88755 -0.26158
7.8848 4.7 1.88755 -0.26158
7.67629 4.7 -1.88755 -0.268889
7.67629 4.7 1.88755 -0.268889
7.4722 4.7 -1.88755 -0.27635
7.4722 4.7 1.88755 -0.27635
7.27245 4.7 -1.88755 -0.283965
7.27245 4.7 1.88755 -0.283965
7.07694 4.7 -1.88755 -0.291738
7.07694 4.7 1.88755 -0.291738
6.88558 4.7 -1.88755 -0.299669
6.88558 4.7 1.88755 -0.299669
6.6983 4.7 -1.88755 -0.307763
6.6983 4.7 1.88755 -0.307763
6.51499 4.7 -1.88755 -0.316021
6.51499 4.7 1.88755 -0.316021
6.33558 4.7 -1.88755 -0.324446
6.33558 4.7 1.88755 -0.324446
6.15998 4.7 -1.88755 -0.333042
6.15998 4.7 1.88755 -0.333042
5.98811 4.7 -1.88755 -0.34181
5.98811 4.7 1.88755 -0.34181
5.81989 4.7 -1.88755 -0.350756
5.81989 4.7 1.88755 -0.350756
5.65525 4.7 -1.88755 -0.359882
5.65525 4.7 1.88755 -0.359882
5.4941 4.7 -1.88755 -0.36919
5.4941 4.7 1.88755 -0.36919
5.33638 4.7 -1.88755 -0.378686
5.33638 4.7 1.88755 -0.378686
5.18201 4.7 -1.88755 -0.388372
5.18201 4.7 1.88755 -0.388372
5.03092 4.7 -1.88755 -0.398253
5.03092 4.7 1.88755 -0.398253
4.88305 4.7 -1.88755 -0.408331
4.88305 4.7 1.88755 -0.408331
4.73831 4.7 -1.88755 -0.418611
4.73831 4.7 1.88755 -0.418611
4.59665 4.7 -1.88755 -0.429097
4.59665 4.7 1.88755 -0.429097
4.458 4.7 -1.88755 -0.439792
4.458 4.7 1.88755 -0.439792
4.32229 4.7 -1.88755 -0.4507
4.32229 4.7 1.88755 -0.4507
4.18947 4.7 -1.88755 -0.461822
4.18947 4.7 1.88755 -0.461822
4.05947 4.7 -1.88755 -0.473163
4.05947 4.7 1.88755 -0.473163
3.93223 4.7 -1.88755 -0.484725
3.93223 4.7 1.88755 -0.484725
3.8077 4.7 -1.88755 -0.496509
3.8077 4.7 1.88755 -0.496509
3.68581 4.7 -1.88755 -0.508515
3.68581 4.7 1.88755 -0.508515
3.56652 4.7 -1.88755 -0.520746
3.56652 4.7 1.88755 -0.520746
3.44975 4.7 -1.88755 -0.533205
3.44975 4.7 1.88755 -0.533205
3.33547 4.7 -1.88755 -0.545891
3.33547 4.7 1.88755 -0.545891
3.22362 4.7 -1.88755 -0.558807
3.22362 4.7 1.88755 -0.558807
3.11414 4.7 -1.88755 -0.571956
3.11414 4.7 1.88755 -0.571956
3.00699 4.7 -1.88755 -0.585335
3.00699 4.7 1.88755 -0.585335
2.90212 4.7 -1.88755 -0.598944
2.90212 4.7 1.88755 -0.598944
2.79947 4.7 -1.88755 -0.612785
2.79947 4.7 1.88755 -0.612785
2.69901 4.7 -1.88755 -0.626856
2.69901 4.7 1.88755 -0.626856
2.60068 4.7 -1.88755 -0.641151
2.60068 4.7 1.88755 -0.641151
2.50444 4.7 -1.88755 -0.655668
2.50444 4.7 1.88755 -0.655668
2.41024 4.7 -1.88755 -0.670407
2.41024 4.7 1.88755 -0.670407
2.31805 4.7 -1.88755 -0.685355
2.31805 4.7 1.88755 -0.685355
2.22782 4.7 -1.88755 -0.700508
2.22782 4.7 1.88755 -0.700508
2.1395 4.7 -1.88755 -0.715862
2.1395 4.7 1.88755 -0.715862
2.05306 4.7 -1.88755 -0.731401
2.05306 4.7 1.88755 -0.731401
1.96845 4.7 -1.88755 -0.747115
1.96845 4.7 1.88755 -0.747115
1.88565 4.7 -1.88755 -0.762995
1.88565 4.7 1.88755 -0.762995
1.8046 4.7 -1.88755 -0.779023
1.8046 4.7 1.88755 -0.779023
1.72528 4.7 -1.88755 -0.795183
1.72528 4.7 1.88755 -0.795183
1.64764 4.7 -1.88755 -0.811465
1.64764 4.7 1.88755 -0.811465
1.57165 4.7 -1.88755 -0.827847
1.57165 4.7 1.88755 -0.827847
1.49727 4.7 -1.88755 -0.844289
1.49727 4.7 1.88755 -0.844289
1.42448 4.7 -1.88755 -0.860757
1.42448 4.7 1.88755 -0.860757
1.35323 4.7 -1.88755 -0.877232
1.35323 4.7 1.88755 -0.877232
1.2835 4.7 -1.88755 -0.893685
1.2835 4.7 1.88755 -0.893685
1.21524 4.7 -1.88755 -0.910086
1.21524 4.7 1.88755 -0.910086
1.14844 4.7 -1.88755 -0.926402
1.14844 4.7 1.88755 -0.926402
1.08306 4.7 -1.88755 -0.942598
1.08306 4.7 1.88755 -0.942598
1.01907 4.7 -1.88755 -0.958642
1.01907 4.7 1.88755 -0.958642
0.956432 4.7 -1.88755 -0.974502
0.956432 4.7 1.88755 -0.974502
0.89513 4.7 -1.88755 -0.990142
0.89513 4.7 1.88755 -0.990142
0.83513 4.7 -1.88755 -1.00552
0.83513 4.7 1.88755 -1.00552
0.775018 4.7 -1.88755 -1.02079
0.775018 4.7 1.88755 -1.02079
0.714907 4.7 -1.88755 -1.0361
0.714907 4.7 1.88755 -1.0361
0.654795 4.7 -1.88755 -1.05137
0.654795 4.7 1.88755 -1.05137
0.594684 4.7 -1.88755 -1.06658
0.594684 4.7 1.88755 -1.06658
0.534572 4.7 -1.88755 -1.08168
0.534572 4.7 1.88755 -1.08168
0.47446 4.7 -1.88755 -1.09662
0.47446 4.7 1.88755 -1.09662
0.414349 4.7 -1.88755 -1.11136
0.414349 4.7 1.88755 -1.11136
0.354237 4.7 -1.88755 -1.12585
0.354237 4.7 1.88755 -1.12585
0.294126 4.7 -1.88755 -1.14005
0.294126 4.7 1.88755 -1.14005
0.234014 4.7 -1.88755 -1.15392
0.234014 4.7 1.88755 -1.15392
0.173903 4.7 -1.88755 -1.16741
0.173903 4.7 1.88755 -1.16741
0.113791 4.7 -1.88755 -1.18047
0.113791 4.7 1.88755 -1.18047
0.0536798 4.7 -1.88755 -1.19306
0.0536798 4.7 1.88755 -1.19306
-0.00643172 4.7 -1.88755 -1.20513
-0.00643172 4.7 1.88755 -1.20513
-0.0665432 4.7 -1.88755 -1.21664
-0.0665432 4.7 1.88755 -1.21664
-0.126655 4.7 -1.88755 -1.22757
-0.126655 4.7 1.88755 -1.22757
-0.186766 4.7 -1.88755 -1.23791
-0.186766 4.7 1.88755 -1.23791
-0.246878 4.7 -1.88755 -1.24763
-0.246878 4.7 1.88755 -1.24763
-0.306989 4.7 -1.88755 -1.25671
-0.306989 4.7 1.88755 -1.25671
-0.367101 4.7 -1.88755 -1.26515
-0.367101 4.7 1.88755 -1.26515
-0.427212 4.7 -1.88755 -1.27293
-0.427212 4.7 1.88755 -1.27293
-0.487324 4.7 -1.88755 -1.28007
-0.487324 4.7 1.88755 -1.28007
-0.547435 4.7 -1.88755 -1.28655
-0.547435 4.7 1.88755 -1.28655
-0.607547 4.7 -1.88755 -1.29241
-0.607547 4.7 1.88755 -1.29241
-0.667658 4.7 -1.88755 -1.29764
-0.667658 4.7 1.88755 -1.29764
-0.72777 4.7 -1.88755 -1.30229
-0.72777 4.7 1.88755 -1.30229
-0.787882 4.7 -1.88755 -1.30637
-0.787882 4.7 1.88755 -1.30637
-0.847993 4.7 -1.88755 -1.30995
-0.847993 4.7 1.88755 -1.30995
-0.907993 4.7 -1.88755 -1.31302
-0.907993 4.7 1.88755 -1.31302
-0.970739 4.7 -1.88755 -1.31567
-0.970739 4.7 1.88755 -1.31567
-1.03636 4.7 -1.88755 -1.31798
-1.03636 4.7 1.88755 -1.31798
-1.10498 4.7 -1.88755 -1.31992
-1.10498 4.7 1.88755 -1.31992
-1.17674 4.7 -1.88755 -1.32149
-1.17674 4.7 1.88755 -1.32149
-1.25179 4.7 -1.88755 -1.32269
-1.25179 4.7 1.88755 -1.32269
-1.33028 4.7 -1.88755 -1.32352
-1.33028 4.7 1.88755 -1.32352
-1.41235 4.7 -1.88755 -1.324
-1.41235 4.7 1.88755 -1.324
-1.49818 4.7 -1.88755 -1.32414
-1.49818 4.7 1.88755 -1.32414
-1.58795 4.7 -1.88755 -1.32395
-1.58795 4.7 1.88755 -1.32395
-1.68182 4.7 -1.88755 -1.32346
-1.68182 4.7 1.88755 -1.32346
-1.77998 4.7 -1.88755 -1.32269
-1.77998 4.7 1.88755 -1.32269
-1.88265 4.7 -1.88755 -1.32165
-1.88265 4.7 1.88755 -1.32165
-1.99001 4.7 -1.88755 -1.32037
-1.99001 4.7 1.88755 -1.32037
-2.10228 4.7 -1.88755 -1.31887
-2.10228 4.7 1.88755 -1.31887
-2.2197 4.7 -1.88755 -1.31716
-2.2197 4.7 1.88755 -1.31716
-2.34248 4.7 -1.88755 -1.31525
-2.34248 4.7 1.88755 -1.31525
-2.47089 4.7 -1.88755 -1.31317
-2.47089 4.7 1.88755 -1.31317
-2.60518 4.7 -1.88755 -1.31092
-2.60518 4.7 1.88755 -1.31092
-2.74561 4.7 -1.88755 -1.30851
-2.74561 4.7 1.88755 -1.30851
-2.89248 4.7 -1.88755 -1.30595
-2.89248 4.7 1.88755 -1.30595
-3.04606 4.7 -1.88755 -1.30323
-3.04606 4.7 1.88755 -1.30323
-3.20668 4.7 -1.88755 -1.30037
-3.20668 4.7 1.88755 -1.30037
-3.37464 4.7 -1.88755 -1.29735
-3.37464 4.7 1.88755 -1.29735
-3.5503 4.7 -1.88755 -1.29418
-3.5503 4.7 1.88755 -1.29418
-3.73399 4.7 -1.88755 -1.29086
-3.73399 4.7 1.88755 -1.29086
-3.9261 4.7 -1.88755 -1.28738
-3.9261 4.7 1.88755 -1.28738
-4.127 4.7 -1.88755 -1.28374
-4.127 4.7 1.88755 -1.28374
-4.33709 4.7 -1.88755 -1.27992
-4.33709 4.7 1.88755 -1.27992
-4.5568 4.7 -1.88755 -1.27593
-4.5568 4.7 1.88755 -1.27593
-4.77651 4.7 -1.88755 -1.27185
-4.77651 4.7 1.88755 -1.27185
-4.99551 4.7 -1.88755 -1.26777
-4.99551 4.7 1.88755 -1.26777
-5.21381 4.7 -1.88755 -1.26371
-5.21381 4.7 1.88755 -1.26371
-5.43139 4.7 -1.88755 -1.25966
-5.43139 4.7 1.88755 -1.25966
-5.64827 4.7 -1.88755 -1.25562
-5.64827 4.7 1.88755 -1.25562
-5.86445 4.7 -1.88755 -1.2516
-5.86445 4.7 1.88755 -1.2516
-6.07993 4.7 -1.88755 -1.24759
-6.07993 4.7 1.88755 -1.24759
-6.29471 4.7 -1.88755 -1.24359
-6.29471 4.7 1.88755 -1.24359
-6.5088 4.7 -1.88755 -1.2396
-6.5088 4.7 1.88755 -1.2396
-6.72219 4.7 -1.88755 -1.23563
-6.72219 4.7 1.88755 -1.23563
-6.9349 4.7 -1.88755 -1.23167
-6.9349 4.7 1.88755 -1.23167
-7.14691 4.7 -1.88755 -1.22773
-7.14691 4.7 1.88755 -1.22773
-7.35824 4.7 -1.88755 -1.22379
-7.35824 4.7 1.88755 -1.22379
-7.56889 4.7 -1.88755 -1.21987
-7.56889 4.7 1.88755 -1.21987
-7.77885 4.7 -1.88755 -1.21596
-7.77885 4.7 1.88755 -1.21596
-7.98813 4.7 -1.88755 -1.21207
-7.98813 4.7 1.88755 -1.21207
-8.19674 4.7 -1.88755 -1.20819
-8.19674 4.7 1.88755 -1.20819
-8.40467 4.7 -1.88755 -1.20432
-8.40467 4.7 1.88755 -1.20432
-8.61193 4.7 -1.88755 -1.20046
-8.61193 4.7 1.88755 -1.20046
-8.81852 4.7 -1.88755 -1.19661
-8.81852 4.7 1.88755 -1.19661
-9.02444 4.7 -1.88755 -1.19278
-9.02444 4.7 1.88755 -1.19278
-9.2297 4.7 -1.88755 -1.18896
-9.2297 4.7 1.88755 -1.18896
-9.43428 4.7 -1.88755 -1.18515
-9.43428 4.7 1.88755 -1.18515
-9.63821 4.7 -1.88755 -1.18136
-9.63821 4.7 1.88755 -1.18136
-9.84148 4.7 -1.88755 -1.17758
-9.84148 4.7 1.88755 -1.17758
-10.0441 4.7 -1.88755 -1.17381
-10.0441 4.7 1.88755 -1.17381
-10.246 4.7 -1.88755 -1.17005
-10.246 4.7 1.88755 -1.17005
-10.4473 4.7 -1.88755 -1.16631
-10.4473 4.7 1.88755 -1.16631
-10.648 4.7 -1.88755 -1.16258
-10.648 4.7 1.88755 -1.16258
-10.848 4.7 1.88755 -1.15877
-10.848 4.7 -1.88755 -1.15877
-60.848 4.7 1.88755 -0.234034
-59.848 4.7 1.88755 -0.234034
-59.848 4.7 -1.88755 -0.234034
-60.848 4.7 -1.88755 -0.234034
-58.8506 4.7 1.88755 -0.252527
-58.8506 4.7 -1.88755 -0.252527
-57.8559 4.7 1.88755 -0.271007
-57.8559 4.7 -1.88755 -0.271007
-56.8639 4.7 1.88755 -0.289483
-56.8639 4.7 -1.88755 -0.289483
-55.8744 4.7 1.88755 -0.307952
-55.8744 4.7 -1.88755 -0.307952
-54.8876 4.7 1.88755 -0.326394
-54.8876 4.7 -1.88755 -0.326394
-53.9034 4.7 1.88755 -0.344801
-53.9034 4.7 -1.88755 -0.344801
-52.9218 4.7 1.88755 -0.363175
-52.9218 4.7 -1.88755 -0.363175
-51.9429 4.7 1.88755 -0.381513
-51.9429 4.7 -1.88755 -0.381513
-50.9665 4.7 1.88755 -0.399819
-50.9665 4.7 -1.88755 -0.399819
-49.9927 4.7 1.88755 -0.418089
-49.9927 4.7 -1.88755 -0.418089
-49.0215 4.7 1.88755 -0.43631
-49.0215 4.7 -1.88755 -0.43631
-48.0528 4.7 1.88755 -0.454478
-48.0528 4.7 -1.88755 -0.454478
-47.0867 4.7 1.88755 -0.4726
-47.0867 4.7 -1.88755 -0.4726
-46.1232 4.7 1.88755 -0.490675
-46.1232 4.7 -1.88755 -0.490675
-45.1622 4.7 1.88755 -0.508702
-45.1622 4.7 -1.88755 -0.508702
-44.2038 4.7 1.88755 -0.526681
-44.2038 4.7 -1.88755 -0.526681
-43.248 4.7 1.88755 -0.544604
-43.248 4.7 -1.88755 -0.544604
-42.2946 4.7 1.88755 -0.562469
-42.2946 4.7 -1.88755 -0.562469
-41.3438 4.7 1.88755 -0.580282
-41.3438 4.7 -1.88755 -0.580282
-40.3955 4.7 1.88755 -0.598045
-40.3955 4.7 -1.88755 -0.598045
-39.4497 4.7 1.88755 -0.615755
-39.4497 4.7 -1.88755 -0.615755
-38.5065 4.7 1.88755 -0.633413
-38.5065 4.7 -1.88755 -0.633413
-37.5657 4.7 1.88755 -0.651016
-37.5657 4.7 -1.88755 -0.651016
-36.6274 4.7 1.88755 -0.668563
-36.6274 4.7 -1.88755 -0.668563
-35.6916 4.7 1.88755 -0.686057
-35.6916 4.7 -1.88755 -0.686057
-34.7583 4.7 1.88755 -0.703499
-34.7583 4.7 -1.88755 -0.703499
-33.8275 4.7 1.88755 -0.720889
-33.8275 4.7 -1.88755 -0.720889
-32.8991 4.7 1.88755 -0.738228
-32.8991 4.7 -1.88755 -0.738228
-31.9732 4.7 1.88755 -0.755514
-31.9732 4.7 -1.88755 -0.755514
-31.0498 4.7 1.88755 -0.772747
-31.0498 4.7 -1.88755 -0.772747
-30.1288 4.7 1.88755 -0.78993
-30.1288 4.7 -1.88755 -0.78993
-29.2102 4.7 1.88755 -0.807062
-29.2102 4.7 -1.88755 -0.807062
-28.2941 4.7 1.88755 -0.824144
-28.2941 4.7 -1.88755 -0.824144
-27.3804 4.7 1.88755 -0.841178
-27.3804 4.7 -1.88755 -0.841178
-26.4667 4.7 1.88755 -0.858185
-26.4667 4.7 -1.88755 -0.858185
-25.5929 4.7 1.88755 -0.874816
-25.5929 4.7 -1.88755 -0.874816
-24.7573 4.7 1.88755 -0.890716
-24.7573 4.7 -1.88755 -0.890716
-23.9582 4.7 1.88755 -0.905918
-23.9582 4.7 -1.88755 -0.905918
-23.1941 4.7 1.88755 -0.920454
-23.1941 4.7 -1.88755 -0.920454
-22.4633 4.7 1.88755 -0.934353
-22.4633 4.7 -1.88755 -0.934353
-21.7645 4.7 1.88755 -0.947644
-21.7645 4.7 -1.88755 -0.947644
-21.0962 4.7 1.88755 -0.960353
-21.0962 4.7 -1.88755 -0.960353
-20.4571 4.7 1.88755 -0.972505
-20.4571 4.7 -1.88755 -0.972505
-19.8459 4.7 1.88755 -0.984124
-19.8459 4.7 -1.88755 -0.984124
-19.2615 4.7 1.88755 -0.995235
-19.2615 4.7 -1.88755 -0.995235
-18.7026 4.7 1.88755 -1.00586
-18.7026 4.7 -1.88755 -1.00586
-18.1681 4.7 1.88755 -1.01602
-18.1681 4.7 -1.88755 -1.01602
-17.6569 4.7 1.88755 -1.02573
-17.6569 4.7 -1.88755 -1.02573
-17.1681 4.7 1.88755 -1.03503
-17.1681 4.7 -1.88755 -1.03503
-16.7007 4.7 1.88755 -1.04391
-16.7007 4.7 -1.88755 -1.04391
-16.2537 4.7 1.88755 -1.05241
-16.2537 4.7 -1.88755 -1.05241
-15.8262 4.7 1.88755 -1.06053
-15.8262 4.7 -1.88755 -1.06053
-15.4174 4.7 1.88755 -1.0683
-15.4174 4.7 -1.88755 -1.0683
-15.0265 4.7 1.88755 -1.07573
-15.0265 4.7 -1.88755 -1.07573
-14.6526 4.7 1.88755 -1.08283
-14.6526 4.7 -1.88755 -1.08283
-14.2951 4.7 1.88755 -1.08963
-14.2951 4.7 -1.88755 -1.08963
-13.9532 4.7 1.88755 -1.09612
-13.9532 4.7 -1.88755 -1.09612
-13.6263 4.7 1.88755 -1.10234
-13.6263 4.7 -1.88755 -1.10234
-13.3136 4.7 1.88755 -1.10828
-13.3136 4.7 -1.88755 -1.10828
-13.0146 4.7 1.88755 -1.11396
-13.0146 4.7 -1.88755 -1.11396
-12.7287 4.7 1.88755 -1.11939
-12.7287 4.7 -1.88755 -1.11939
-12.4552 4.7 1.88755 -1.12459
-12.4552 4.7 -1.88755 -1.12459
-12.1937 4.7 1.88755 -1.12956
-12.1937 4.7 -1.88755 -1.12956
-11.9437 4.7 1.88755 -1.13431
-11.9437 4.7 -1.88755 -1.13431
-11.7045 4.7 1.88755 -1.13886
-11.7045 4.7 -1.88755 -1.13886
-11.4758 4.7 1.88755 -1.1432
-11.4758 4.7 -1.88755 -1.1432
-11.2571 4.7 1.88755 -1.14736
-11.2571 4.7 -1.88755 -1.14736
-11.048 4.7 1.88755 -1.15132
-11.048 4.7 -1.88755 -1.15132
-110.848 4.7 1.88755 0.79866
-109.848 4.7 1.88755 0.79866
-109.848 4.7 -1.88755 0.79866
-110.848 4.7 -1.88755 0.79866
-108.848 4.7 1.88755 0.669872
-108.848 4.7 -1.88755 0.669872
-107.848 4.7 1.88755 0.62814
-107.848 4.7 -1.88755 0.62814
-106.848 4.7 1.88755 0.618748
-106.848 4.7 -1.88755 0.618748
-105.848 4.7 1.88755 0.606197
-105.848 4.7 -1.88755 0.606197
-104.848 4.7 1.88755 0.5855
-104.848 4.7 -1.88755 0.5855
-103.848 4.7 1.88755 0.564422
-103.848 4.7 -1.88755 0.564422
-102.848 4.7 1.88755 0.544886
-102.848 4.7 -1.88755 0.544886
-101.848 4.7 1.88755 0.525444
-101.848 4.7 -1.88755 0.525444
-100.848 4.7 1.88755 0.505696
-100.848 4.7 -1.88755 0.505696
-99.848 4.7 1.88755 0.486038
-99.848 4.7 -1.88755 0.486038
-98.848 4.7 1.88755 0.466625
-98.848 4.7 -1.88755 0.466625
-97.848 4.7 1.88755 0.44739
-97.848 4.7 -1.88755 0.44739
-96.848 4.7 1.88755 0.428305
-96.848 4.7 -1.88755 0.428305
-95.848 4.7 1.88755 0.409378
-95.848 4.7 -1.88755 0.409378
-94.848 4.7 1.88755 0.390592
-94.848 4.7 -1.88755 0.390592
-93.848 4.7 1.88755 0.371947
-93.848 4.7 -1.88755 0.371947
-92.848 4.7 1.88755 0.353444
-92.848 4.7 -1.88755 0.353444
-91.848 4.7 1.88755 0.335067
-91.848 4.7 -1.88755 0.335067
-90.848 4.7 1.88755 0.316801
-90.848 4.7 -1.88755 0.316801
-89.848 4.7 1.88755 0.298646
-89.848 4.7 -1.88755 0.298646
-88.848 4.7 1.88755 0.280599
-88.848 4.7 -1.88755 0.280599
-87.848 4.7 1.88755 0.262643
-87.848 4.7 -1.88755 0.262643
-86.848 4.7 1.88755 0.244776
-86.848 4.7 -1.88755 0.244776
-85.848 4.7 1.88755 0.226993
-85.848 4.7 -1.88755 0.226993
-84.848 4.7 1.88755 0.209289
-84.848 4.7 -1.88755 0.209289
-83.848 4.7 1.88755 0.191659
-83.848 4.7 -1.88755 0.191659
-82.848 4.7 1.88755 0.174097
-82.848 4.7 -1.88755 0.174097
-81.848 4.7 1.88755 0.156598
-81.848 4.7 -1.88755 0.156598
-80.848 4.7 1.88755 0.139153
-80.848 4.7 -1.88755 0.139153
-79.848 4.7 1.88755 0.121752
-79.848 4.7 -1.88755 0.121752
-78.848 4.7 1.88755 0.104385
-78.848 4.7 -1.88755 0.104385
-77.848 4.7 1.88755 0.0870392
-77.848 4.7 -1.88755 0.0870392
-76.848 4.7 1.88755 0.0696981
-76.848 4.7 -1.88755 0.0696981
-75.848 4.7 1.88755 0.0523471
-75.848 4.7 -1.88755 0.0523471
-74.848 4.7 1.88755 0.0349774
-74.848 4.7 -1.88755 0.0349774
-73.848 4.7 1.88755 0.0175774
-73.848 4.7 -1.88755 0.0175774
-72.848 4.7 1.88755 0.000126223
-72.848 4.7 -1.88755 0.000126223
-71.848 4.7 1.88755 -0.0173976