# wallShearStress  POINT_DATA 994
# x y z  wallShearStress_x wallShearStress_y wallShearStress_z
76.848 3.84014e-15 1.88755 -0.000595625 -8.68518e-09 0
76.848 3.84014e-15 -1.88755 -0.000595625 -8.68518e-09 0
77.848 3.89022e-15 -1.88755 -0.000595625 -8.68518e-09 0
77.848 3.89022e-15 1.88755 -0.000595625 -8.68518e-09 0
75.8596 3.79065e-15 1.88755 -0.000603616 -5.62203e-08 0
75.8596 3.79065e-15 -1.88755 -0.000603616 -5.62203e-08 0
74.8826 3.74172e-15 1.88755 -0.000611205 -4.06579e-08 -6.39752e-27
74.8826 3.74172e-15 -1.88755 -0.000611205 -4.06579e-08 -6.39752e-27
73.9169 3.69337e-15 1.88755 -0.000618564 -4.70131e-08 8.52614e-27
73.9169 3.69337e-15 -1.88755 -0.000618564 -4.70131e-08 8.52614e-27
72.9624 3.64557e-15 1.88755 -0.000625602 -4.79462e-08 1.10979e-26
72.9624 3.64557e-15 -1.88755 -0.000625602 -4.79462e-08 1.10979e-26
72.019 3.59833e-15 1.88755 -0.000634018 -5.01098e-08 1.35208e-26
72.019 3.59833e-15 -1.88755 -0.000634018 -5.01098e-08 1.35208e-26
71.0865 3.55163e-15 1.88755 -0.000641054 -5.16062e-08 0
71.0865 3.55163e-15 -1.88755 -0.000641054 -5.16062e-08 0
70.1648 3.50547e-15 1.88755 -0.000649762 -5.43553e-08 0
70.1648 3.50547e-15 -1.88755 -0.000649762 -5.43553e-08 0
69.2537 3.45985e-15 1.88755 -0.000657291 -5.52559e-08 6.55638e-45
69.2537 3.45985e-15 -1.88755 -0.000657291 -5.52559e-08 6.55638e-45
68.3532 3.41476e-15 1.88755 -0.000665947 -5.8148e-08 4.74991e-26
68.3532 3.41476e-15 -1.88755 -0.000665947 -5.8148e-08 4.74991e-26
67.4632 3.37019e-15 1.88755 -0.000673978 -5.92607e-08 -7.67901e-37
67.4632 3.37019e-15 -1.88755 -0.000673978 -5.92607e-08 -7.67901e-37
66.5834 3.32613e-15 1.88755 -0.000682601 -6.18439e-08 0
66.5834 3.32613e-15 -1.88755 -0.000682601 -6.18439e-08 0
65.7138 3.28259e-15 1.88755 -0.000690981 -6.34185e-08 -6.35064e-26
65.7138 3.28259e-15 -1.88755 -0.000690981 -6.34185e-08 -6.35064e-26
64.8543 3.23955e-15 1.88755 -0.000699655 -6.58032e-08 0
64.8543 3.23955e-15 -1.88755 -0.000699655 -6.58032e-08 0
64.0048 3.19701e-15 1.88755 -0.000708266 -6.76391e-08 7.4466e-26
64.0048 3.19701e-15 -1.88755 -0.000708266 -6.76391e-08 7.4466e-26
63.1651 3.15496e-15 1.88755 -0.000717003 -6.97799e-08 8.00153e-26
63.1651 3.15496e-15 -1.88755 -0.000717003 -6.97799e-08 8.00153e-26
62.3351 3.11339e-15 1.88755 -0.000725715 -7.15756e-08 8.5604e-26
62.3351 3.11339e-15 -1.88755 -0.000725715 -7.15756e-08 8.5604e-26
61.5147 3.07231e-15 1.88755 -0.000734441 -7.34349e-08 0
61.5147 3.07231e-15 -1.88755 -0.000734441 -7.34349e-08 0
60.7038 3.03171e-15 1.88755 -0.000743106 -7.48973e-08 1.00784e-47
60.7038 3.03171e-15 -1.88755 -0.000743106 -7.48973e-08 1.00784e-47
59.9024 2.99157e-15 1.88755 -0.000751656 -7.67445e-08 0
59.9024 2.99157e-15 -1.88755 -0.000751656 -7.67445e-08 0
59.1102 2.9519e-15 1.88755 -0.000760228 -8.27313e-08 1.57378e-36
59.1102 2.9519e-15 -1.88755 -0.000760228 -8.27313e-08 1.57378e-36
58.3271 2.91269e-15 1.88755 -0.000769479 -8.90247e-08 -1.13796e-25
58.3271 2.91269e-15 -1.88755 -0.000769479 -8.90247e-08 -1.13796e-25
57.5532 2.87393e-15 1.88755 -0.000778789 -9.1605e-08 2.48921e-60
57.5532 2.87393e-15 -1.88755 -0.000778789 -9.1605e-08 2.48921e-60
56.7882 2.83562e-15 1.88755 -0.000788018 -9.4057e-08 1.42646e-47
56.7882 2.83562e-15 -1.88755 -0.000788018 -9.4057e-08 1.42646e-47
56.032 2.79776e-15 1.88755 -0.000797216 -9.67216e-08 1.90121e-36
56.032 2.79776e-15 -1.88755 -0.000797216 -9.67216e-08 1.90121e-36
55.2846 2.76033e-15 1.88755 -0.000806345 -9.93681e-08 1.3619e-25
55.2846 2.76033e-15 -1.88755 -0.000806345 -9.93681e-08 1.3619e-25
54.5459 2.72334e-15 1.88755 -0.00081539 -1.01793e-07 -1.41667e-25
54.5459 2.72334e-15 -1.88755 -0.00081539 -1.01793e-07 -1.41667e-25
53.8157 2.68678e-15 1.88755 -0.00082428 -1.0414e-07 -3.11151e-61
53.8157 2.68678e-15 -1.88755 -0.00082428 -1.0414e-07 -3.11151e-61
53.094 2.65063e-15 1.88755 -0.000833028 -1.06697e-07 -1.52365e-25
53.094 2.65063e-15 -1.88755 -0.000833028 -1.06697e-07 -1.52365e-25
52.3806 2.61491e-15 1.88755 -0.000841617 -1.0925e-07 2.63798e-44
52.3806 2.61491e-15 -1.88755 -0.000841617 -1.0925e-07 2.63798e-44
51.6755 2.5796e-15 1.88755 -0.000850016 -1.11802e-07 0
51.6755 2.5796e-15 -1.88755 -0.000850016 -1.11802e-07 0
50.9785 2.5447e-15 1.88755 -0.000858208 -1.14291e-07 -1.67488e-25
50.9785 2.5447e-15 -1.88755 -0.000858208 -1.14291e-07 -1.67488e-25
50.2897 2.51021e-15 1.88755 -0.000866146 -1.16582e-07 -1.72192e-25
50.2897 2.51021e-15 -1.88755 -0.000866146 -1.16582e-07 -1.72192e-25
49.6088 2.47611e-15 1.88755 -0.000873792 -1.18709e-07 1.76686e-25
49.6088 2.47611e-15 -1.88755 -0.000873792 -1.18709e-07 1.76686e-25
48.9358 2.44241e-15 1.88755 -0.000881105 -1.20708e-07 -1.80942e-25
48.9358 2.44241e-15 -1.88755 -0.000881105 -1.20708e-07 -1.80942e-25
48.2705 2.4091e-15 1.88755 -0.000888056 -1.22782e-07 3.35782e-44
48.2705 2.4091e-15 -1.88755 -0.000888056 -1.22782e-07 3.35782e-44
47.613 2.37617e-15 1.88755 -0.000894635 -1.24843e-07 0
47.613 2.37617e-15 -1.88755 -0.000894635 -1.24843e-07 0
46.9631 2.34362e-15 1.88755 -0.000900795 -1.26617e-07 0
46.9631 2.34362e-15 -1.88755 -0.000900795 -1.26617e-07 0
46.3207 2.31146e-15 1.88755 -0.00090648 -1.27875e-07 -1.94951e-25
46.3207 2.31146e-15 -1.88755 -0.00090648 -1.27875e-07 -1.94951e-25
45.6858 2.27966e-15 1.88755 -0.000911611 -1.2889e-07 -1.3511e-45
45.6858 2.27966e-15 -1.88755 -0.000911611 -1.2889e-07 -1.3511e-45
45.0582 2.24823e-15 1.88755 -0.000916175 -1.29625e-07 -1.99625e-25
45.0582 2.24823e-15 -1.88755 -0.000916175 -1.29625e-07 -1.99625e-25
44.4379 2.21717e-15 1.88755 -0.000920091 -1.2992e-07 1.46419e-36
44.4379 2.21717e-15 -1.88755 -0.000920091 -1.2992e-07 1.46419e-36
43.8248 2.18647e-15 1.88755 -0.000923321 -1.29881e-07 -2.02283e-25
43.8248 2.18647e-15 -1.88755 -0.000923321 -1.29881e-07 -2.02283e-25
43.2187 2.15612e-15 1.88755 -0.000925801 -1.29499e-07 2.02729e-25
43.2187 2.15612e-15 -1.88755 -0.000925801 -1.29499e-07 2.02729e-25
42.6197 2.12612e-15 1.88755 -0.00092749 -1.28292e-07 -1.47348e-36
42.6197 2.12612e-15 -1.88755 -0.00092749 -1.28292e-07 -1.47348e-36
42.0276 2.09647e-15 1.88755 -0.000928247 -1.25472e-07 3.62227e-71
42.0276 2.09647e-15 -1.88755 -0.000928247 -1.25472e-07 3.62227e-71
41.4424 2.06717e-15 1.88755 -0.000927898 -1.20172e-07 -2.57727e-47
41.4424 2.06717e-15 -1.88755 -0.000927898 -1.20172e-07 -2.57727e-47
40.8639 2.0382e-15 1.88755 -0.000926159 -1.23086e-07 0
40.8639 2.0382e-15 -1.88755 -0.000926159 -1.23086e-07 0
40.2922 2.00957e-15 1.88755 -0.000923711 -1.35461e-07 -1.93485e-25
40.2922 2.00957e-15 -1.88755 -0.000923711 -1.35461e-07 -1.93485e-25
39.727 1.98127e-15 1.88755 -0.000920701 -1.38787e-07 9.43945e-26
39.727 1.98127e-15 -1.88755 -0.000920701 -1.38787e-07 9.43945e-26
39.1685 1.9533e-15 1.88755 -0.000916522 -1.31943e-07 0
39.1685 1.9533e-15 -1.88755 -0.000916522 -1.31943e-07 0
38.6163 1.92565e-15 1.88755 -0.000910974 -1.22383e-07 -8.79791e-26
38.6163 1.92565e-15 -1.88755 -0.000910974 -1.22383e-07 -8.79791e-26
38.0706 1.89832e-15 1.88755 -0.00090393 -1.10678e-07 8.38141e-26
38.0706 1.89832e-15 -1.88755 -0.00090393 -1.10678e-07 8.38141e-26
37.5312 1.87131e-15 1.88755 -0.000895306 -9.6708e-08 7.8942e-26
37.5312 1.87131e-15 -1.88755 -0.000895306 -9.6708e-08 7.8942e-26
36.998 1.84461e-15 1.88755 -0.000884979 -8.00382e-08 1.06693e-36
36.998 1.84461e-15 -1.88755 -0.000884979 -8.00382e-08 1.06693e-36
36.4711 1.81822e-15 1.88755 -0.00087284 -6.0525e-08 0
36.4711 1.81822e-15 -1.88755 -0.00087284 -6.0525e-08 0
35.9502 1.79214e-15 1.88755 -0.000858775 -3.80082e-08 0
35.9502 1.79214e-15 -1.88755 -0.000858775 -3.80082e-08 0
35.4353 1.76636e-15 1.88755 -0.000842695 -1.20291e-08 5.12638e-26
35.4353 1.76636e-15 -1.88755 -0.000842695 -1.20291e-08 5.12638e-26
34.9264 1.74087e-15 1.88755 -0.000824454 1.79525e-08 0
34.9264 1.74087e-15 -1.88755 -0.000824454 1.79525e-08 0
34.4234 1.71568e-15 1.88755 -0.000803977 5.17266e-08 2.30538e-37
34.4234 1.71568e-15 -1.88755 -0.000803977 5.17266e-08 2.30538e-37
33.9204 1.6905e-15 1.88755 -0.000780991 9.02577e-08 1.451e-37
33.9204 1.6905e-15 -1.88755 -0.000780991 9.02577e-08 1.451e-37
33.4352 1.6662e-15 1.88755 -0.00075566 1.3359e-07 8.31007e-49
33.4352 1.6662e-15 -1.88755 -0.00075566 1.3359e-07 8.31007e-49
32.9672 1.64276e-15 1.88755 -0.000728455 1.8051e-07 9.05568e-72
32.9672 1.64276e-15 -1.88755 -0.000728455 1.8051e-07 9.05568e-72
32.5157 1.62016e-15 1.88755 -0.000699491 2.31145e-07 1.57403e-37
32.5157 1.62016e-15 -1.88755 -0.000699491 2.31145e-07 1.57403e-37
32.0803 1.59835e-15 1.88755 -0.000668863 2.85113e-07 3.87437e-26
32.0803 1.59835e-15 -1.88755 -0.000668863 2.85113e-07 3.87437e-26
31.6602 1.57731e-15 1.88755 -0.000636691 3.42192e-07 4.18523e-37
31.6602 1.57731e-15 -1.88755 -0.000636691 3.42192e-07 4.18523e-37
31.255 1.55702e-15 1.88755 -0.00060311 4.01848e-07 -7.81059e-26
31.255 1.55702e-15 -1.88755 -0.00060311 4.01848e-07 -7.81059e-26
30.8642 1.53745e-15 1.88755 -0.000568263 4.63814e-07 2.41055e-44
30.8642 1.53745e-15 -1.88755 -0.000568263 4.63814e-07 2.41055e-44
30.4871 1.51857e-15 1.88755 -0.000532295 5.27647e-07 9.0697e-37
30.4871 1.51857e-15 -1.88755 -0.000532295 5.27647e-07 9.0697e-37
30.1235 1.50036e-15 1.88755 -0.000495356 5.92676e-07 -1.4884e-47
30.1235 1.50036e-15 -1.88755 -0.000495356 5.92676e-07 -1.4884e-47
29.7727 1.48279e-15 1.88755 -0.000457615 6.58381e-07 -3.7129e-44
29.7727 1.48279e-15 -1.88755 -0.000457615 6.58381e-07 -3.7129e-44
29.4343 1.46585e-15 1.88755 -0.000419226 7.24331e-07 -1.0434e-25
29.4343 1.46585e-15 -1.88755 -0.000419226 7.24331e-07 -1.0434e-25
29.1079 1.4495e-15 1.88755 -0.000380342 7.90761e-07 0
29.1079 1.4495e-15 -1.88755 -0.000380342 7.90761e-07 0
28.793 1.43374e-15 1.88755 -0.00034107 8.55541e-07 -9.98062e-37
28.793 1.43374e-15 -1.88755 -0.00034107 8.55541e-07 -9.98062e-37
28.4893 1.41853e-15 1.88755 -0.000301623 9.23873e-07 1.54888e-25
28.4893 1.41853e-15 -1.88755 -0.000301623 9.23873e-07 1.54888e-25
28.1964 1.40386e-15 1.88755 -0.000262189 9.98041e-07 -1.2606e-36
28.1964 1.40386e-15 -1.88755 -0.000262189 9.98041e-07 -1.2606e-36
27.9138 1.38971e-15 1.88755 -0.000222871 1.07048e-06 0
27.9138 1.38971e-15 -1.88755 -0.000222871 1.07048e-06 0
27.6412 1.37606e-15 1.88755 -0.000183799 1.13877e-06 2.12632e-25
27.6412 1.37606e-15 -1.88755 -0.000183799 1.13877e-06 2.12632e-25
27.3783 1.36289e-15 1.88755 -0.000145117 1.2025e-06 -2.33571e-25
27.3783 1.36289e-15 -1.88755 -0.000145117 1.2025e-06 -2.33571e-25
27.1246 1.35019e-15 1.88755 -0.000106928 1.26208e-06 0
27.1246 1.35019e-15 -1.88755 -0.000106928 1.26208e-06 0
26.88 1.33794e-15 1.88755 -6.93088e-05 1.31799e-06 0
26.88 1.33794e-15 -1.88755 -6.93088e-05 1.31799e-06 0
26.644 1.32612e-15 1.88755 -3.22482e-05 1.37825e-06 0
26.644 1.32612e-15 -1.88755 -3.22482e-05 1.37825e-06 0
26.4164 1.31472e-15 1.88755 4.45879e-06 1.46441e-06 -1.62797e-25
26.4164 1.31472e-15 -1.88755 4.45879e-06 1.46441e-06 -1.62797e-25
26.1968 1.30373e-15 1.88755 4.15338e-05 1.46736e-06 9.95682e-60
26.1968 1.30373e-15 -1.88755 4.15338e-05 1.46736e-06 9.95682e-60
25.985 1.29312e-15 1.88755 7.66934e-05 1.42464e-06 -1.82136e-47
25.985 1.29312e-15 -1.88755 7.66934e-05 1.42464e-06 -1.82136e-47
25.7807 1.28289e-15 1.88755 0.000110052 1.3791e-06 0
25.7807 1.28289e-15 -1.88755 0.000110052 1.3791e-06 0
25.5836 1.27302e-15 1.88755 0.000141637 1.33198e-06 2.20356e-47
25.5836 1.27302e-15 -1.88755 0.000141637 1.33198e-06 2.20356e-47
25.3935 1.2635e-15 1.88755 0.000171516 1.28445e-06 0
25.3935 1.2635e-15 -1.88755 0.000171516 1.28445e-06 0
25.2101 1.25432e-15 1.88755 0.000199759 1.23699e-06 1.01053e-36
25.2101 1.25432e-15 -1.88755 0.000199759 1.23699e-06 1.01053e-36
25.0332 1.24546e-15 1.88755 0.000226436 1.18985e-06 -1.09266e-36
25.0332 1.24546e-15 -1.88755 0.000226436 1.18985e-06 -1.09266e-36
24.8626 1.23692e-15 1.88755 0.000251614 1.14319e-06 0
24.8626 1.23692e-15 -1.88755 0.000251614 1.14319e-06 0
24.698 1.22867e-15 1.88755 0.000275361 1.09714e-06 -1.74325e-25
24.698 1.22867e-15 -1.88755 0.000275361 1.09714e-06 -1.74325e-25
24.5393 1.22072e-15 1.88755 0.00029774 1.05168e-06 -1.362e-36
24.5393 1.22072e-15 -1.88755 0.00029774 1.05168e-06 -1.362e-36
24.3861 1.21306e-15 1.88755 0.00031881 1.00866e-06 -2.00623e-25
24.3861 1.21306e-15 -1.88755 0.00031881 1.00866e-06 -2.00623e-25
24.2384 1.20566e-15 1.88755 0.000338683 9.72484e-07 1.62884e-43
24.2384 1.20566e-15 -1.88755 0.000338683 9.72484e-07 1.62884e-43
24.0959 1.19852e-15 1.88755 0.000357471 9.39105e-07 -1.66433e-36
24.0959 1.19852e-15 -1.88755 0.000357471 9.39105e-07 -1.66433e-36
23.9585 1.19164e-15 1.88755 0.000375108 9.023e-07 -1.77207e-36
23.9585 1.19164e-15 -1.88755 0.000375108 9.023e-07 -1.77207e-36
23.8259 1.185e-15 1.88755 0.000391654 8.66084e-07 1.88391e-36
23.8259 1.185e-15 -1.88755 0.000391654 8.66084e-07 1.88391e-36
23.698 1.1786e-15 1.88755 0.00040716 8.30144e-07 -1.44891e-70
23.698 1.1786e-15 -1.88755 0.00040716 8.30144e-07 -1.44891e-70
23.5746 1.17242e-15 1.88755 0.000421673 7.94368e-07 1.06013e-36
23.5746 1.17242e-15 -1.88755 0.000421673 7.94368e-07 1.06013e-36
23.4557 1.16646e-15 1.88755 0.000435237 7.5878e-07 -1.12246e-36
23.4557 1.16646e-15 -1.88755 0.000435237 7.5878e-07 -1.12246e-36
23.3409 1.16071e-15 1.88755 0.000447897 7.23431e-07 -3.98273e-59
23.3409 1.16071e-15 -1.88755 0.000447897 7.23431e-07 -3.98273e-59
23.2302 1.15517e-15 1.88755 0.000459695 6.88136e-07 -1.72324e-25
23.2302 1.15517e-15 -1.88755 0.000459695 6.88136e-07 -1.72324e-25
23.1234 1.14982e-15 1.88755 0.000470669 6.52982e-07 -1.81821e-25
23.1234 1.14982e-15 -1.88755 0.000470669 6.52982e-07 -1.81821e-25
23.0203 1.14466e-15 1.88755 0.000480859 6.17933e-07 0
23.0203 1.14466e-15 -1.88755 0.000480859 6.17933e-07 0
22.921 1.13969e-15 1.88755 0.000490299 5.82787e-07 1.46815e-36
22.921 1.13969e-15 -1.88755 0.000490299 5.82787e-07 1.46815e-36
22.8251 1.13489e-15 1.88755 0.000499023 5.47493e-07 0
22.8251 1.13489e-15 -1.88755 0.000499023 5.47493e-07 0
22.7326 1.13026e-15 1.88755 0.000507061 5.11777e-07 -2.23089e-25
22.7326 1.13026e-15 -1.88755 0.000507061 5.11777e-07 -2.23089e-25
22.6435 1.12579e-15 1.88755 0.000514439 4.75657e-07 2.3426e-25
22.6435 1.12579e-15 -1.88755 0.000514439 4.75657e-07 2.3426e-25
22.5574 1.12148e-15 1.88755 0.000521186 4.3884e-07 8.94135e-37
22.5574 1.12148e-15 -1.88755 0.000521186 4.3884e-07 8.94135e-37
22.4744 1.11733e-15 1.88755 0.00052732 4.00736e-07 -1.28835e-25
22.4744 1.11733e-15 -1.88755 0.00052732 4.00736e-07 -1.28835e-25
22.3944 1.11332e-15 1.88755 0.000532856 3.60883e-07 -3.98273e-59
22.3944 1.11332e-15 -1.88755 0.000532856 3.60883e-07 -3.98273e-59
22.3172 1.10945e-15 1.88755 0.000537806 3.1853e-07 0
22.3172 1.10945e-15 -1.88755 0.000537806 3.1853e-07 0
22.2427 1.10572e-15 1.88755 0.000542168 2.72099e-07 2.57325e-43
22.2427 1.10572e-15 -1.88755 0.000542168 2.72099e-07 2.57325e-43
22.1708 1.10212e-15 1.88755 0.000545933 2.19347e-07 1.54485e-25
22.1708 1.10212e-15 -1.88755 0.000545933 2.19347e-07 1.54485e-25
22.1015 1.09865e-15 1.88755 0.000549057 1.55689e-07 -1.61389e-25
22.1015 1.09865e-15 -1.88755 0.000549057 1.55689e-07 -1.61389e-25
22.0347 1.0953e-15 1.88755 0.000551489 7.44522e-08 0
22.0347 1.0953e-15 -1.88755 0.000551489 7.44522e-08 0
21.9702 1.09208e-15 1.88755 0.000553025 -4.91242e-08 1.98858e-47
21.9702 1.09208e-15 -1.88755 0.000553025 -4.91242e-08 1.98858e-47
21.908 1.08896e-15 1.88755 0.000553501 -2.7416e-07 0
21.908 1.08896e-15 -1.88755 0.000553501 -2.7416e-07 0
21.848 1.73472e-15 1.88755 0.000551288 -7.16122e-07 0
21.848 1.73472e-15 -1.88755 0.000551288 -7.16122e-07 0
21.7876 0.000188157 1.88755 0.000547482 -2.23485e-06 4.90682e-23
21.7876 0.000188157 -1.88755 0.000547482 -2.23485e-06 4.90682e-23
21.7272 0.00075262 1.88755 0.000545858 -5.04165e-06 2.40982e-26
21.7272 0.00075262 -1.88755 0.000545858 -5.04165e-06 2.40982e-26
21.6668 0.00169337 1.88755 0.000546163 -8.26025e-06 -1.99711e-22
21.6668 0.00169337 -1.88755 0.000546163 -8.26025e-06 -1.99711e-22
21.6063 0.00301036 1.88755 0.000546687 -1.15485e-05 -4.02657e-22
21.6063 0.00301036 -1.88755 0.000546687 -1.15485e-05 -4.02657e-22
21.546 0.00470355 1.88755 0.000547221 -1.48684e-05 6.29713e-28
21.546 0.00470355 -1.88755 0.000547221 -1.48684e-05 6.29713e-28
21.4856 0.00677288 1.88755 0.000547687 -1.82047e-05 8.18666e-22
21.4856 0.00677288 -1.88755 0.000547687 -1.82047e-05 8.18666e-22
21.4252 0.00921825 1.88755 0.000548022 -2.15466e-05 8.25921e-22
21.4252 0.00921825 -1.88755 0.000548022 -2.15466e-05 8.25921e-22
21.3649 0.0120396 1.88755 0.000548204 -2.48892e-05 8.32736e-22
21.3649 0.0120396 -1.88755 0.000548204 -2.48892e-05 8.32736e-22
21.3045 0.0152368 1.88755 0.000548223 -2.82286e-05 -1.70873e-25
21.3045 0.0152368 -1.88755 0.000548223 -2.82286e-05 -1.70873e-25
21.2442 0.0188097 1.88755 0.000548077 -3.15611e-05 8.46431e-22
21.2442 0.0188097 -1.88755 0.000548077 -3.15611e-05 8.46431e-22
21.1839 0.0227581 1.88755 0.000547771 -3.48836e-05 -2.44129e-25
21.1839 0.0227581 -1.88755 0.000547771 -3.48836e-05 -2.44129e-25
21.1237 0.0270821 1.88755 0.000547311 -3.81939e-05 2.10567e-25
21.1237 0.0270821 -1.88755 0.000547311 -3.81939e-05 2.10567e-25
21.0634 0.0317812 1.88755 0.000546708 -4.14898e-05 1.73362e-21
21.0634 0.0317812 -1.88755 0.000546708 -4.14898e-05 1.73362e-21
21.0032 0.0368555 1.88755 0.000545973 -4.47695e-05 1.74764e-21
21.0032 0.0368555 -1.88755 0.000545973 -4.47695e-05 1.74764e-21
20.9431 0.0423046 1.88755 0.00054512 -4.80323e-05 1.76136e-21
20.9431 0.0423046 -1.88755 0.00054512 -4.80323e-05 1.76136e-21
20.8829 0.0481284 1.88755 0.000544161 -5.12773e-05 3.5504e-21
20.8829 0.0481284 -1.88755 0.000544161 -5.12773e-05 3.5504e-21
20.8228 0.0543267 1.88755 0.000543109 -5.45035e-05 1.78852e-21
20.8228 0.0543267 -1.88755 0.000543109 -5.45035e-05 1.78852e-21
20.7628 0.0608992 1.88755 0.000541982 -5.77107e-05 -2.39911e-27
20.7628 0.0608992 -1.88755 0.000541982 -5.77107e-05 -2.39911e-27
20.7027 0.0678456 1.88755 0.000540801 -6.08999e-05 4.42272e-25
20.7027 0.0678456 -1.88755 0.000540801 -6.08999e-05 4.42272e-25
20.6428 0.0751657 1.88755 0.000539588 -6.40724e-05 -2.24005e-25
20.6428 0.0751657 -1.88755 0.000539588 -6.40724e-05 -2.24005e-25
20.5828 0.0828592 1.88755 0.000538369 -6.72305e-05 3.24582e-25
20.5828 0.0828592 -1.88755 0.000538369 -6.72305e-05 3.24582e-25
20.523 0.0909258 1.88755 0.000537175 -7.03764e-05 3.58732e-43
20.523 0.0909258 -1.88755 0.000537175 -7.03764e-05 3.58732e-43
20.4631 0.0993652 1.88755 0.000536048 -7.35138e-05 8.73011e-39
20.4631 0.0993652 -1.88755 0.000536048 -7.35138e-05 8.73011e-39
20.4034 0.108177 1.88755 0.000535069 -7.66502e-05 -2.30641e-25
20.4034 0.108177 -1.88755 0.000535069 -7.66502e-05 -2.30641e-25
20.3437 0.117361 1.88755 0.000534321 -7.97938e-05 3.79643e-21
20.3437 0.117361 -1.88755 0.000534321 -7.97938e-05 3.79643e-21
20.284 0.126917 1.88755 0.000534061 -8.29628e-05 -3.82266e-21
20.284 0.126917 -1.88755 0.000534061 -8.29628e-05 -3.82266e-21
20.2244 0.136844 1.88755 0.000534436 -8.61312e-05 5.88758e-26
20.2244 0.136844 -1.88755 0.000534436 -8.61312e-05 5.88758e-26
20.1649 0.147142 1.88755 0.000537242 -8.93968e-05 -5.89401e-26
20.1649 0.147142 -1.88755 0.000537242 -8.93968e-05 -5.89401e-26
20.1058 0.157553 1.88755 0.000541701 -9.17886e-05 1.20022e-25
20.1058 0.157553 -1.88755 0.000541701 -9.17886e-05 1.20022e-25
20.0454 0.168194 1.88755 0.000543486 -9.2527e-05 -3.87432e-21
20.0454 0.168194 -1.88755 0.000543486 -9.2527e-05 -3.87432e-21
19.9837 0.17907 1.88755 0.000543156 -9.25823e-05 3.82618e-21
19.9837 0.17907 -1.88755 0.000543156 -9.25823e-05 3.82618e-21
19.9206 0.190185 1.88755 0.000542437 -9.24991e-05 -7.58561e-38
19.9206 0.190185 -1.88755 0.000542437 -9.24991e-05 -7.58561e-38
19.8561 0.201547 1.88755 0.000541548 -9.23612e-05 3.73099e-21
19.8561 0.201547 -1.88755 0.000541548 -9.23612e-05 3.73099e-21
19.7902 0.213159 1.88755 0.00054058 -9.21964e-05 -3.68337e-21
19.7902 0.213159 -1.88755 0.00054058 -9.21964e-05 -3.68337e-21
19.7228 0.225027 1.88755 0.000539625 -9.20255e-05 -4.42711e-25
19.7228 0.225027 -1.88755 0.000539625 -9.20255e-05 -4.42711e-25
19.654 0.237157 1.88755 0.000538727 -9.18587e-05 3.59186e-21
19.654 0.237157 -1.88755 0.000538727 -9.18587e-05 3.59186e-21
19.5836 0.249555 1.88755 0.000537913 -9.17024e-05 -1.41059e-37
19.5836 0.249555 -1.88755 0.000537913 -9.17024e-05 -1.41059e-37
19.5117 0.262227 1.88755 0.000537203 -9.15608e-05 -5.87747e-39
19.5117 0.262227 -1.88755 0.000537203 -9.15608e-05 -5.87747e-39
19.4382 0.275178 1.88755 0.000536606 -9.14367e-05 -6.91439e-21
19.4382 0.275178 -1.88755 0.000536606 -9.14367e-05 -6.91439e-21
19.363 0.288415 1.88755 0.000536128 -9.13316e-05 -6.82838e-21
19.363 0.288415 -1.88755 0.000536128 -9.13316e-05 -6.82838e-21
19.2863 0.301945 1.88755 0.000535769 -9.12459e-05 8.20204e-25
19.2863 0.301945 -1.88755 0.000535769 -9.12459e-05 8.20204e-25
19.2078 0.315773 1.88755 0.000535523 -9.11794e-05 6.65721e-21
19.2078 0.315773 -1.88755 0.000535523 -9.11794e-05 6.65721e-21
19.1276 0.329906 1.88755 0.000535386 -9.11313e-05 1.31502e-20
19.1276 0.329906 -1.88755 0.000535386 -9.11313e-05 1.31502e-20
19.0456 0.344351 1.88755 0.000535346 -9.11001e-05 1.57997e-24
19.0456 0.344351 -1.88755 0.000535346 -9.11001e-05 1.57997e-24
18.9618 0.359115 1.88755 0.000535393 -9.10842e-05 -3.01335e-41
18.9618 0.359115 -1.88755 0.000535393 -9.10842e-05 -3.01335e-41
18.8761 0.374205 1.88755 0.000535515 -9.10816e-05 5.87747e-39
18.8761 0.374205 -1.88755 0.000535515 -9.10816e-05 5.87747e-39
18.7886 0.389628 1.88755 0.0005357 -9.10901e-05 6.26316e-21
18.7886 0.389628 -1.88755 0.0005357 -9.10901e-05 6.26316e-21
18.6991 0.405391 1.88755 0.000535932 -9.11073e-05 -1.83671e-40
18.6991 0.405391 -1.88755 0.000535932 -9.11073e-05 -1.83671e-40
18.6077 0.421503 1.88755 0.0005362 -9.11311e-05 6.11739e-21
18.6077 0.421503 -1.88755 0.0005362 -9.11311e-05 6.11739e-21
18.5142 0.43797 1.88755 0.00053649 -9.11591e-05 5.87747e-38
18.5142 0.43797 -1.88755 0.00053649 -9.11591e-05 5.87747e-38
18.4187 0.4548 1.88755 0.00053679 -9.11892e-05 -5.97838e-21
18.4187 0.4548 -1.88755 0.00053679 -9.11892e-05 -5.97838e-21
18.3211 0.472002 1.88755 0.000537089 -9.12191e-05 1.44933e-24
18.3211 0.472002 -1.88755 0.000537089 -9.12191e-05 1.44933e-24
18.2213 0.489584 1.88755 0.000537376 -9.12471e-05 -1.42124e-24
18.2213 0.489584 -1.88755 0.000537376 -9.12471e-05 -1.42124e-24
18.1193 0.507553 1.88755 0.000537642 -9.12714e-05 5.78338e-21
18.1193 0.507553 -1.88755 0.000537642 -9.12714e-05 5.78338e-21
18.015 0.52592 1.88755 0.000537877 -9.12902e-05 5.7218e-21
18.015 0.52592 -1.88755 0.000537877 -9.12902e-05 5.7218e-21
17.9085 0.544691 1.88755 0.000538074 -9.13022e-05 -1.13257e-20
17.9085 0.544691 -1.88755 0.000538074 -9.13022e-05 -1.13257e-20
17.7996 0.563878 1.88755 0.000538226 -9.1306e-05 1.36164e-24
17.7996 0.563878 -1.88755 0.000538226 -9.1306e-05 1.36164e-24
17.6883 0.583487 1.88755 0.000538325 -9.13003e-05 -1.10942e-20
17.6883 0.583487 -1.88755 0.000538325 -9.13003e-05 -1.10942e-20
17.5746 0.60353 1.88755 0.000538367 -9.12841e-05 7.34684e-40
17.5746 0.60353 -1.88755 0.000538367 -9.12841e-05 7.34684e-40
17.4583 0.624014 1.88755 0.000538344 -9.1256e-05 -1.08781e-20
17.4583 0.624014 -1.88755 0.000538344 -9.1256e-05 -1.08781e-20
17.3395 0.644951 1.88755 0.00053825 -9.12151e-05 1.07734e-20
17.3395 0.644951 -1.88755 0.00053825 -9.12151e-05 1.07734e-20
17.218 0.66635 1.88755 0.00053808 -9.11601e-05 2.60595e-24
17.218 0.66635 -1.88755 0.00053808 -9.11601e-05 2.60595e-24
17.0939 0.688222 1.88755 0.000537828 -9.10899e-05 1.05761e-20
17.0939 0.688222 -1.88755 0.000537828 -9.10899e-05 1.05761e-20
16.967 0.710576 1.88755 0.000537485 -9.10033e-05 5.87747e-39
16.967 0.710576 -1.88755 0.000537485 -9.10033e-05 5.87747e-39
16.8373 0.733423 1.88755 0.000537046 -9.0899e-05 -1.27574e-24
16.8373 0.733423 -1.88755 0.000537046 -9.0899e-05 -1.27574e-24
16.7048 0.756775 1.88755 0.000536502 -9.07756e-05 -1.44607e-26
16.7048 0.756775 -1.88755 0.000536502 -9.07756e-05 -1.44607e-26
16.5693 0.780643 1.88755 0.000535846 -9.06316e-05 1.24029e-24
16.5693 0.780643 -1.88755 0.000535846 -9.06316e-05 1.24029e-24
16.4309 0.805037 1.88755 0.00053507 -9.04655e-05 2.02789e-20
16.4309 0.805037 -1.88755 0.00053507 -9.04655e-05 2.02789e-20
16.2894 0.829969 1.88755 0.000534163 -9.02755e-05 4.57639e-25
16.2894 0.829969 -1.88755 0.000534163 -9.02755e-05 4.57639e-25
16.1447 0.855452 1.88755 0.000533116 -9.006e-05 -9.98677e-21
16.1447 0.855452 -1.88755 0.000533116 -9.006e-05 -9.98677e-21
15.9969 0.881498 1.88755 0.000531919 -8.98169e-05 9.9151e-21
15.9969 0.881498 -1.88755 0.000531919 -8.98169e-05 9.9151e-21
15.8458 0.908118 1.88755 0.00053056 -8.95441e-05 1.96933e-20
15.8458 0.908118 -1.88755 0.00053056 -8.95441e-05 1.96933e-20
15.6914 0.935326 1.88755 0.000529025 -8.92393e-05 1.95617e-20
15.6914 0.935326 -1.88755 0.000529025 -8.92393e-05 1.95617e-20
15.5336 0.963134 1.88755 0.0005273 -8.88999e-05 3.88796e-20
15.5336 0.963134 -1.88755 0.0005273 -8.88999e-05 3.88796e-20
15.3722 0.991557 1.88755 0.00052537 -8.85231e-05 -1.17095e-24
15.3722 0.991557 -1.88755 0.00052537 -8.85231e-05 -1.17095e-24
15.2074 1.02061 1.88755 0.000523218 -8.81057e-05 -8.36175e-25
15.2074 1.02061 -1.88755 0.000523218 -8.81057e-05 -8.36175e-25
15.0389 1.0503 1.88755 0.000520823 -8.76442e-05 -1.17491e-24
15.0389 1.0503 -1.88755 0.000520823 -8.76442e-05 -1.17491e-24
14.8666 1.08064 1.88755 0.000518163 -8.71346e-05 -8.34198e-25
14.8666 1.08064 -1.88755 0.000518163 -8.71346e-05 -8.34198e-25
14.6906 1.11166 1.88755 0.000515212 -8.65723e-05 -1.89191e-20
14.6906 1.11166 -1.88755 0.000515212 -8.65723e-05 -1.89191e-20
14.5107 1.14336 1.88755 0.00051194 -8.59519e-05 -1.15905e-24
14.5107 1.14336 -1.88755 0.00051194 -8.59519e-05 -1.15905e-24
14.3268 1.17576 1.88755 0.000508309 -8.52671e-05 1.13583e-24
14.3268 1.17576 -1.88755 0.000508309 -8.52671e-05 1.13583e-24
14.1388 1.20888 1.88755 0.00050428 -8.45105e-05 1.86955e-20
14.1388 1.20888 -1.88755 0.00050428 -8.45105e-05 1.86955e-20
13.9467 1.24272 1.88755 0.000499804 -8.36739e-05 0
13.9467 1.24272 -1.88755 0.000499804 -8.36739e-05 0
13.7504 1.27731 1.88755 0.000494834 -8.27485e-05 6.46522e-38
13.7504 1.27731 -1.88755 0.000494834 -8.27485e-05 6.46522e-38
13.5497 1.31267 1.88755 0.000489319 -8.17252e-05 -1.85377e-20
13.5497 1.31267 -1.88755 0.000489319 -8.17252e-05 -1.85377e-20
13.3446 1.34881 1.88755 0.000483215 -8.05955e-05 3.70044e-20
13.3446 1.34881 -1.88755 0.000483215 -8.05955e-05 3.70044e-20
13.135 1.38574 1.88755 0.000476476 -7.93514e-05 -1.11675e-24
13.135 1.38574 -1.88755 0.000476476 -7.93514e-05 -1.11675e-24
12.9207 1.42349 1.88755 0.000469055 -7.79838e-05 1.76324e-37
12.9207 1.42349 -1.88755 0.000469055 -7.79838e-05 1.76324e-37
12.7017 1.46208 1.88755 0.000460889 -7.6482e-05 -3.6886e-20
12.7017 1.46208 -1.88755 0.000460889 -7.6482e-05 -3.6886e-20
12.4779 1.50151 1.88755 0.000451896 -7.48316e-05 3.68853e-20
12.4779 1.50151 -1.88755 0.000451896 -7.48316e-05 3.68853e-20
12.2491 1.54182 1.88755 0.000441959 -7.30125e-05 -5.69275e-25
12.2491 1.54182 -1.88755 0.000441959 -7.30125e-05 -5.69275e-25
12.0153 1.58301 1.88755 0.000430922 -7.09978e-05 -3.69399e-20
12.0153 1.58301 -1.88755 0.000430922 -7.09978e-05 -3.69399e-20
11.7763 1.62512 1.88755 0.000418628 -6.8759e-05 -1.3042e-26
11.7763 1.62512 -1.88755 0.000418628 -6.8759e-05 -1.3042e-26
11.5321 1.66815 1.88755 0.000404927 -6.62691e-05 5.59175e-25
11.5321 1.66815 -1.88755 0.000404927 -6.62691e-05 5.59175e-25
11.2825 1.71214 1.88755 0.000389669 -6.35006e-05 3.71861e-20
11.2825 1.71214 -1.88755 0.000389669 -6.35006e-05 3.71861e-20
11.0273 1.75709 1.88755 0.000372696 -6.04252e-05 3.7314e-20
11.0273 1.75709 -1.88755 0.000372696 -6.04252e-05 3.7314e-20
10.7665 1.80304 1.88755 0.000353797 -5.70066e-05 -1.41082e-25
10.7665 1.80304 -1.88755 0.000353797 -5.70066e-05 -1.41082e-25
10.5 1.85 1.88755 0.000332602 -5.31822e-05 0
10.5 1.85 -1.88755 0.000332602 -5.31822e-05 0
10.2335 1.89696 1.88755 0.00030892 -4.89183e-05 -3.86844e-20
10.2335 1.89696 -1.88755 0.00030892 -4.89183e-05 -3.86844e-20
9.97268 1.94291 1.88755 0.00028303 -4.42636e-05 1.57119e-25
9.97268 1.94291 -1.88755 0.00028303 -4.42636e-05 1.57119e-25
9.71754 1.98786 1.88755 0.000255176 -3.92601e-05 4.26227e-20
9.71754 1.98786 -1.88755 0.000255176 -3.92601e-05 4.26227e-20
9.4679 2.03185 1.88755 0.00022527 -3.38941e-05 3.3659e-25
9.4679 2.03185 -1.88755 0.00022527 -3.38941e-05 3.3659e-25
9.22365 2.07488 1.88755 0.000193133 -2.81355e-05 4.68896e-20
9.22365 2.07488 -1.88755 0.000193133 -2.81355e-05 4.68896e-20
8.98468 2.11699 1.88755 0.000158601 -2.19553e-05 1.17549e-38
8.98468 2.11699 -1.88755 0.000158601 -2.19553e-05 1.17549e-38
8.75087 2.15818 1.88755 0.000121533 -1.53283e-05 0
8.75087 2.15818 -1.88755 0.000121533 -1.53283e-05 0
8.5221 2.19849 1.88755 8.18181e-05 -8.23492e-06 2.35099e-38
8.5221 2.19849 -1.88755 8.18181e-05 -8.23492e-06 2.35099e-38
8.29828 2.23792 1.88755 3.92949e-05 -6.31796e-07 1.12891e-19
8.29828 2.23792 -1.88755 3.92949e-05 -6.31796e-07 1.12891e-19
8.0793 2.27651 1.88755 -4.81877e-06 7.35585e-06 -5.91955e-20
8.0793 2.27651 -1.88755 -4.81877e-06 7.35585e-06 -5.91955e-20
7.86504 2.31426 1.88755 -4.45905e-05 1.46929e-05 2.93874e-39
7.86504 2.31426 -1.88755 -4.45905e-05 1.46929e-05 2.93874e-39
7.6554 2.35119 1.88755 -8.48597e-05 2.20693e-05 -3.33049e-20
7.6554 2.35119 -1.88755 -8.48597e-05 2.20693e-05 -3.33049e-20
7.4503 2.38733 1.88755 -0.000125772 2.95668e-05 -5.87747e-39
7.4503 2.38733 -1.88755 -0.000125772 2.95668e-05 -5.87747e-39
7.24963 2.42269 1.88755 -0.00016728 3.71809e-05 -1.88079e-36
7.24963 2.42269 -1.88755 -0.00016728 3.71809e-05 -1.88079e-36
7.05328 2.45728 1.88755 -0.000209298 4.48955e-05 7.92109e-20
7.05328 2.45728 -1.88755 -0.000209298 4.48955e-05 7.92109e-20
6.86118 2.49112 1.88755 -0.000251792 5.27049e-05 -1.17549e-38
6.86118 2.49112 -1.88755 -0.000251792 5.27049e-05 -1.17549e-38
6.67323 2.52424 1.88755 -0.000294825 6.06178e-05 -5.23749e-41
6.67323 2.52424 -1.88755 -0.000294825 6.06178e-05 -5.23749e-41
6.48934 2.55664 1.88755 -0.000338384 6.86342e-05 1.44983e-24
6.48934 2.55664 -1.88755 -0.000338384 6.86342e-05 1.44983e-24
6.30942 2.58834 1.88755 -0.000382351 7.67341e-05 -1.49332e-24
6.30942 2.58834 -1.88755 -0.000382351 7.67341e-05 -1.49332e-24
6.13338 2.61936 1.88755 -0.000426651 8.4905e-05 -1.14023e-36
6.13338 2.61936 -1.88755 -0.000426651 8.4905e-05 -1.14023e-36
5.96114 2.6497 1.88755 -0.000471281 9.31461e-05 5.52821e-20