# wallShearStress  POINT_DATA 994
# x y z  wallShearStress_x wallShearStress_y wallShearStress_z
76.848 4.7 1.88755 -0.000630028 6.72275e-08 0
77.848 4.7 1.88755 -0.000630028 6.72275e-08 0
77.848 4.7 -1.88755 -0.000630028 6.72275e-08 0
76.848 4.7 -1.88755 -0.000630028 6.72275e-08 0
75.8596 4.7 -1.88755 -0.000646111 4.84516e-08 3.78666e-27
75.8596 4.7 1.88755 -0.000646111 4.84516e-08 3.78666e-27
74.8826 4.7 -1.88755 -0.000651865 5.51856e-08 0
74.8826 4.7 1.88755 -0.000651865 5.51856e-08 0
73.9169 4.7 -1.88755 -0.000663087 5.51084e-08 0
73.9169 4.7 1.88755 -0.000663087 5.51084e-08 0
72.9624 4.7 -1.88755 -0.000671649 5.78001e-08 0
72.9624 4.7 1.88755 -0.000671649 5.78001e-08 0
72.019 4.7 -1.88755 -0.000682265 5.91625e-08 1.22473e-26
72.019 4.7 1.88755 -0.000682265 5.91625e-08 1.22473e-26
71.0865 4.7 -1.88755 -0.000691638 6.15483e-08 0
71.0865 4.7 1.88755 -0.000691638 6.15483e-08 0
70.1648 4.7 -1.88755 -0.000702515 6.39423e-08 0
70.1648 4.7 1.88755 -0.000702515 6.39423e-08 0
69.2537 4.7 -1.88755 -0.000712556 6.59658e-08 3.89976e-26
69.2537 4.7 1.88755 -0.000712556 6.59658e-08 3.89976e-26
68.3532 4.7 -1.88755 -0.000723754 6.88425e-08 0
68.3532 4.7 1.88755 -0.000723754 6.88425e-08 0
67.4632 4.7 -1.88755 -0.000734472 7.0851e-08 -4.9025e-26
67.4632 4.7 1.88755 -0.000734472 7.0851e-08 -4.9025e-26
66.5834 4.7 -1.88755 -0.000746012 7.37621e-08 0
66.5834 4.7 1.88755 -0.000746012 7.37621e-08 0
65.7138 4.7 -1.88755 -0.000757352 7.59221e-08 0
65.7138 4.7 1.88755 -0.000757352 7.59221e-08 0
64.8543 4.7 -1.88755 -0.000769267 7.88174e-08 0
64.8543 4.7 1.88755 -0.000769267 7.88174e-08 0
64.0048 4.7 -1.88755 -0.00078118 8.11529e-08 0
64.0048 4.7 1.88755 -0.00078118 8.11529e-08 0
63.1651 4.7 -1.88755 -0.000793494 8.39453e-08 0
63.1651 4.7 1.88755 -0.000793494 8.39453e-08 0
62.3351 4.7 -1.88755 -0.000805912 8.63264e-08 8.02065e-26
62.3351 4.7 1.88755 -0.000805912 8.63264e-08 8.02065e-26
61.5147 4.7 -1.88755 -0.000818606 8.88743e-08 0
61.5147 4.7 1.88755 -0.000818606 8.88743e-08 0
60.7038 4.7 -1.88755 -0.000831426 9.10741e-08 0
60.7038 4.7 1.88755 -0.000831426 9.10741e-08 0
59.9024 4.7 -1.88755 -0.000844416 9.32335e-08 0
59.9024 4.7 1.88755 -0.000844416 9.32335e-08 0
59.1102 4.7 -1.88755 -0.000857501 9.55044e-08 0
59.1102 4.7 1.88755 -0.000857501 9.55044e-08 0
58.3271 4.7 -1.88755 -0.000870791 9.97677e-08 1.06668e-25
58.3271 4.7 1.88755 -0.000870791 9.97677e-08 1.06668e-25
57.5532 4.7 -1.88755 -0.000884633 1.07508e-07 -1.11907e-25
57.5532 4.7 1.88755 -0.000884633 1.07508e-07 -1.11907e-25
56.7882 4.7 -1.88755 -0.000899344 1.13215e-07 1.1713e-25
56.7882 4.7 1.88755 -0.000899344 1.13215e-07 1.1713e-25
56.032 4.7 -1.88755 -0.00091418 1.15568e-07 1.22306e-25
56.032 4.7 1.88755 -0.00091418 1.15568e-07 1.22306e-25
55.2846 4.7 -1.88755 -0.000929199 1.18241e-07 0
55.2846 4.7 1.88755 -0.000929199 1.18241e-07 0
54.5459 4.7 -1.88755 -0.000944384 1.2073e-07 0
54.5459 4.7 1.88755 -0.000944384 1.2073e-07 0
53.8157 4.7 -1.88755 -0.000959712 1.23194e-07 0
53.8157 4.7 1.88755 -0.000959712 1.23194e-07 0
53.094 4.7 -1.88755 -0.000975185 1.25627e-07 0
53.094 4.7 1.88755 -0.000975185 1.25627e-07 0
52.3806 4.7 -1.88755 -0.000990783 1.27932e-07 0
52.3806 4.7 1.88755 -0.000990783 1.27932e-07 0
51.6755 4.7 -1.88755 -0.00100648 1.29976e-07 0
51.6755 4.7 1.88755 -0.00100648 1.29976e-07 0
50.9785 4.7 -1.88755 -0.00102225 1.31864e-07 0
50.9785 4.7 1.88755 -0.00102225 1.31864e-07 0
50.2897 4.7 -1.88755 -0.00103807 1.33687e-07 1.60037e-25
50.2897 4.7 1.88755 -0.00103807 1.33687e-07 1.60037e-25
49.6088 4.7 -1.88755 -0.00105393 1.35304e-07 0
49.6088 4.7 1.88755 -0.00105393 1.35304e-07 0
48.9358 4.7 -1.88755 -0.00106981 1.36913e-07 0
48.9358 4.7 1.88755 -0.00106981 1.36913e-07 0
48.2705 4.7 -1.88755 -0.00108571 1.38499e-07 0
48.2705 4.7 1.88755 -0.00108571 1.38499e-07 0
47.613 4.7 -1.88755 -0.00110161 1.39866e-07 0
47.613 4.7 1.88755 -0.00110161 1.39866e-07 0
46.9631 4.7 -1.88755 -0.00111749 1.41256e-07 1.76807e-25
46.9631 4.7 1.88755 -0.00111749 1.41256e-07 1.76807e-25
46.3207 4.7 -1.88755 -0.00113336 1.42576e-07 0
46.3207 4.7 1.88755 -0.00113336 1.42576e-07 0
45.6858 4.7 -1.88755 -0.00114918 1.43453e-07 -1.80909e-25
45.6858 4.7 1.88755 -0.00114918 1.43453e-07 -1.80909e-25
45.0582 4.7 -1.88755 -0.0011649 1.44319e-07 0
45.0582 4.7 1.88755 -0.0011649 1.44319e-07 0
44.4379 4.7 -1.88755 -0.00118056 1.45175e-07 1.82956e-25
44.4379 4.7 1.88755 -0.00118056 1.45175e-07 1.82956e-25
43.8248 4.7 -1.88755 -0.00119611 1.45766e-07 0
43.8248 4.7 1.88755 -0.00119611 1.45766e-07 0
43.2187 4.7 -1.88755 -0.00121155 1.46468e-07 0
43.2187 4.7 1.88755 -0.00121155 1.46468e-07 0
42.6197 4.7 -1.88755 -0.00122689 1.47374e-07 0
42.6197 4.7 1.88755 -0.00122689 1.47374e-07 0
42.0276 4.7 -1.88755 -0.00124214 1.48146e-07 1.78918e-25
42.0276 4.7 1.88755 -0.00124214 1.48146e-07 1.78918e-25
41.4424 4.7 -1.88755 -0.00125727 1.48999e-07 1.75781e-25
41.4424 4.7 1.88755 -0.00125727 1.48999e-07 1.75781e-25
40.8639 4.7 -1.88755 -0.00127231 1.50047e-07 1.7162e-25
40.8639 4.7 1.88755 -0.00127231 1.50047e-07 1.7162e-25
40.2922 4.7 -1.88755 -0.00128726 1.51262e-07 0
40.2922 4.7 1.88755 -0.00128726 1.51262e-07 0
39.727 4.7 -1.88755 -0.00130214 1.52823e-07 0
39.727 4.7 1.88755 -0.00130214 1.52823e-07 0
39.1685 4.7 -1.88755 -0.00131697 1.54365e-07 0
39.1685 4.7 1.88755 -0.00131697 1.54365e-07 0
38.6163 4.7 -1.88755 -0.00133172 1.55883e-07 0
38.6163 4.7 1.88755 -0.00133172 1.55883e-07 0
38.0706 4.7 -1.88755 -0.00134642 1.57702e-07 0
38.0706 4.7 1.88755 -0.00134642 1.57702e-07 0
37.5312 4.7 -1.88755 -0.00136108 1.59761e-07 0
37.5312 4.7 1.88755 -0.00136108 1.59761e-07 0
36.998 4.7 -1.88755 -0.00137572 1.62097e-07 0
36.998 4.7 1.88755 -0.00137572 1.62097e-07 0
36.4711 4.7 -1.88755 -0.00139036 1.64709e-07 -4.39422e-26
36.4711 4.7 1.88755 -0.00139036 1.64709e-07 -4.39422e-26
35.9502 4.7 -1.88755 -0.00140501 1.67437e-07 -3.45388e-26
35.9502 4.7 1.88755 -0.00140501 1.67437e-07 -3.45388e-26
35.4353 4.7 -1.88755 -0.00141967 1.69886e-07 0
35.4353 4.7 1.88755 -0.00141967 1.69886e-07 0
34.9264 4.7 -1.88755 -0.00143425 1.71296e-07 1.2065e-26
34.9264 4.7 1.88755 -0.00143425 1.71296e-07 1.2065e-26
34.4234 4.7 -1.88755 -0.00144864 1.7302e-07 0
34.4234 4.7 1.88755 -0.00144864 1.7302e-07 0
33.9204 4.7 -1.88755 -0.00146314 1.91195e-07 0
33.9204 4.7 1.88755 -0.00146314 1.91195e-07 0
33.4352 4.7 -1.88755 -0.0014789 2.26392e-07 0
33.4352 4.7 1.88755 -0.0014789 2.26392e-07 0
32.9672 4.7 -1.88755 -0.00149582 2.4913e-07 5.16984e-26
32.9672 4.7 1.88755 -0.00149582 2.4913e-07 5.16984e-26
32.5157 4.7 -1.88755 -0.00151274 2.5761e-07 0
32.5157 4.7 1.88755 -0.00151274 2.5761e-07 0
32.0803 4.7 -1.88755 -0.00152962 2.66276e-07 0
32.0803 4.7 1.88755 -0.00152962 2.66276e-07 0
31.6602 4.7 -1.88755 -0.00154649 2.75113e-07 0
31.6602 4.7 1.88755 -0.00154649 2.75113e-07 0
31.255 4.7 -1.88755 -0.00156334 2.84015e-07 1.49271e-25
31.255 4.7 1.88755 -0.00156334 2.84015e-07 1.49271e-25
30.8642 4.7 -1.88755 -0.00158018 2.93072e-07 0
30.8642 4.7 1.88755 -0.00158018 2.93072e-07 0
30.4871 4.7 -1.88755 -0.00159699 3.02182e-07 0
30.4871 4.7 1.88755 -0.00159699 3.02182e-07 0
30.1235 4.7 -1.88755 -0.00161378 3.11399e-07 0
30.1235 4.7 1.88755 -0.00161378 3.11399e-07 0
29.7727 4.7 -1.88755 -0.00163053 3.20688e-07 -1.42779e-25
29.7727 4.7 1.88755 -0.00163053 3.20688e-07 -1.42779e-25
29.4343 4.7 -1.88755 -0.00164723 3.30107e-07 0
29.4343 4.7 1.88755 -0.00164723 3.30107e-07 0
29.1079 4.7 -1.88755 -0.00166388 3.39445e-07 0
29.1079 4.7 1.88755 -0.00166388 3.39445e-07 0
28.793 4.7 -1.88755 -0.00168045 3.48703e-07 -2.07577e-25
28.793 4.7 1.88755 -0.00168045 3.48703e-07 -2.07577e-25
28.4893 4.7 -1.88755 -0.00169691 3.58091e-07 0
28.4893 4.7 1.88755 -0.00169691 3.58091e-07 0
28.1964 4.7 -1.88755 -0.00171327 3.67156e-07 -2.57506e-25
28.1964 4.7 1.88755 -0.00171327 3.67156e-07 -2.57506e-25
27.9138 4.7 -1.88755 -0.00172948 3.75777e-07 0
27.9138 4.7 1.88755 -0.00172948 3.75777e-07 0
27.6412 4.7 -1.88755 -0.00174551 3.84246e-07 0
27.6412 4.7 1.88755 -0.00174551 3.84246e-07 0
27.3783 4.7 -1.88755 -0.00176136 3.92501e-07 3.42617e-25
27.3783 4.7 1.88755 -0.00176136 3.92501e-07 3.42617e-25
27.1246 4.7 -1.88755 -0.00177699 4.0052e-07 0
27.1246 4.7 1.88755 -0.00177699 4.0052e-07 0
26.88 4.7 -1.88755 -0.00179239 4.08338e-07 0
26.88 4.7 1.88755 -0.00179239 4.08338e-07 0
26.644 4.7 -1.88755 -0.00180754 4.15887e-07 0
26.644 4.7 1.88755 -0.00180754 4.15887e-07 0
26.4164 4.7 -1.88755 -0.00182242 4.23207e-07 -2.37571e-25
26.4164 4.7 1.88755 -0.00182242 4.23207e-07 -2.37571e-25
26.1968 4.7 -1.88755 -0.00183703 4.3027e-07 0
26.1968 4.7 1.88755 -0.00183703 4.3027e-07 0
25.985 4.7 -1.88755 -0.00185134 4.37068e-07 2.74745e-25
25.985 4.7 1.88755 -0.00185134 4.37068e-07 2.74745e-25
25.7807 4.7 -1.88755 -0.00186535 4.43533e-07 0
25.7807 4.7 1.88755 -0.00186535 4.43533e-07 0
25.5836 4.7 -1.88755 -0.00187904 4.49758e-07 0
25.5836 4.7 1.88755 -0.00187904 4.49758e-07 0
25.3935 4.7 -1.88755 -0.00189241 4.55763e-07 -3.35487e-25
25.3935 4.7 1.88755 -0.00189241 4.55763e-07 -3.35487e-25
25.2101 4.7 -1.88755 -0.00190544 4.61478e-07 0
25.2101 4.7 1.88755 -0.00190544 4.61478e-07 0
25.0332 4.7 -1.88755 -0.00191814 4.66906e-07 -3.79259e-25
25.0332 4.7 1.88755 -0.00191814 4.66906e-07 -3.79259e-25
24.8626 4.7 -1.88755 -0.0019305 4.72056e-07 0
24.8626 4.7 1.88755 -0.0019305 4.72056e-07 0
24.698 4.7 -1.88755 -0.00194251 4.76886e-07 2.12809e-25
24.698 4.7 1.88755 -0.00194251 4.76886e-07 2.12809e-25
24.5393 4.7 -1.88755 -0.00195418 4.81332e-07 0
24.5393 4.7 1.88755 -0.00195418 4.81332e-07 0
24.3861 4.7 -1.88755 -0.00196549 4.8536e-07 2.37268e-25
24.3861 4.7 1.88755 -0.00196549 4.8536e-07 2.37268e-25
24.2384 4.7 -1.88755 -0.00197646 4.88911e-07 -2.49973e-25
24.2384 4.7 1.88755 -0.00197646 4.88911e-07 -2.49973e-25
24.0959 4.7 -1.88755 -0.00198706 4.92076e-07 0
24.0959 4.7 1.88755 -0.00198706 4.92076e-07 0
23.9585 4.7 -1.88755 -0.00199732 4.9487e-07 2.76325e-25
23.9585 4.7 1.88755 -0.00199732 4.9487e-07 2.76325e-25
23.8259 4.7 -1.88755 -0.00200723 4.9728e-07 0
23.8259 4.7 1.88755 -0.00200723 4.9728e-07 0
23.698 4.7 -1.88755 -0.00201679 4.99351e-07 0
23.698 4.7 1.88755 -0.00201679 4.99351e-07 0
23.5746 4.7 -1.88755 -0.00202602 5.01062e-07 3.18181e-25
23.5746 4.7 1.88755 -0.00202602 5.01062e-07 3.18181e-25
23.4557 4.7 -1.88755 -0.00203491 5.02468e-07 0
23.4557 4.7 1.88755 -0.00203491 5.02468e-07 0
23.3409 4.7 -1.88755 -0.00204347 5.03542e-07 1.73806e-25
23.3409 4.7 1.88755 -0.00204347 5.03542e-07 1.73806e-25
23.2302 4.7 -1.88755 -0.00205171 5.04307e-07 1.81389e-25
23.2302 4.7 1.88755 -0.00205171 5.04307e-07 1.81389e-25
23.1234 4.7 -1.88755 -0.00205964 5.04775e-07 -1.89121e-25
23.1234 4.7 1.88755 -0.00205964 5.04775e-07 -1.89121e-25
23.0203 4.7 -1.88755 -0.00206726 5.04978e-07 1.96999e-25
23.0203 4.7 1.88755 -0.00206726 5.04978e-07 1.96999e-25
22.921 4.7 -1.88755 -0.00207459 5.04904e-07 0
22.921 4.7 1.88755 -0.00207459 5.04904e-07 0
22.8251 4.7 -1.88755 -0.00208162 5.04589e-07 0
22.8251 4.7 1.88755 -0.00208162 5.04589e-07 0
22.7326 4.7 -1.88755 -0.00208838 5.04027e-07 0
22.7326 4.7 1.88755 -0.00208838 5.04027e-07 0
22.6435 4.7 -1.88755 -0.00209487 5.03288e-07 0
22.6435 4.7 1.88755 -0.00209487 5.03288e-07 0
22.5574 4.7 -1.88755 -0.0021011 5.02311e-07 -2.38523e-25
22.5574 4.7 1.88755 -0.0021011 5.02311e-07 -2.38523e-25
22.4744 4.7 -1.88755 -0.00210707 5.01221e-07 1.23619e-25
22.4744 4.7 1.88755 -0.00210707 5.01221e-07 1.23619e-25
22.3944 4.7 -1.88755 -0.0021128 4.9999e-07 1.2804e-25
22.3944 4.7 1.88755 -0.0021128 4.9999e-07 1.2804e-25
22.3172 4.7 -1.88755 -0.0021183 4.98697e-07 0
22.3172 4.7 1.88755 -0.0021183 4.98697e-07 0
22.2427 4.7 -1.88755 -0.00212358 4.97394e-07 0
22.2427 4.7 1.88755 -0.00212358 4.97394e-07 0
22.1708 4.7 -1.88755 -0.00212865 4.9626e-07 0
22.1708 4.7 1.88755 -0.00212865 4.9626e-07 0
22.1015 4.7 -1.88755 -0.00213351 4.95449e-07 0
22.1015 4.7 1.88755 -0.00213351 4.95449e-07 0
22.0347 4.7 -1.88755 -0.00213819 4.94278e-07 0
22.0347 4.7 1.88755 -0.00213819 4.94278e-07 0
21.9702 4.7 -1.88755 -0.00214268 4.92115e-07 -1.55821e-25
21.9702 4.7 1.88755 -0.00214268 4.92115e-07 -1.55821e-25
21.908 4.7 -1.88755 -0.002147 4.92469e-07 1.60638e-25
21.908 4.7 1.88755 -0.002147 4.92469e-07 1.60638e-25
21.848 4.7 -1.88755 -0.00215118 4.98828e-07 0
21.848 4.7 1.88755 -0.00215118 4.98828e-07 0
21.7879 4.7 -1.88755 -0.00215533 4.97438e-07 -1.66306e-25
21.7879 4.7 1.88755 -0.00215533 4.97438e-07 -1.66306e-25
21.7278 4.7 -1.88755 -0.00215945 4.85732e-07 0
21.7278 4.7 1.88755 -0.00215945 4.85732e-07 0
21.6677 4.7 -1.88755 -0.00216352 4.73845e-07 0
21.6677 4.7 1.88755 -0.00216352 4.73845e-07 0
21.6075 4.7 -1.88755 -0.00216757 4.60491e-07 0
21.6075 4.7 1.88755 -0.00216757 4.60491e-07 0
21.5474 4.7 -1.88755 -0.00217158 4.4684e-07 8.55244e-26
21.5474 4.7 1.88755 -0.00217158 4.4684e-07 8.55244e-26
21.4873 4.7 -1.88755 -0.00217554 4.32567e-07 -2.57628e-25
21.4873 4.7 1.88755 -0.00217554 4.32567e-07 -2.57628e-25
21.4272 4.7 -1.88755 -0.00217946 4.17913e-07 1.72093e-25
21.4272 4.7 1.88755 -0.00217946 4.17913e-07 1.72093e-25
21.3671 4.7 -1.88755 -0.00218333 4.02765e-07 1.39025e-24
21.3671 4.7 1.88755 -0.00218333 4.02765e-07 1.39025e-24
21.307 4.7 -1.88755 -0.00218715 3.87525e-07 0
21.307 4.7 1.88755 -0.00218715 3.87525e-07 0
21.2469 4.7 -1.88755 -0.00219093 3.72915e-07 -1.7664e-25
21.2469 4.7 1.88755 -0.00219093 3.72915e-07 -1.7664e-25
21.1868 4.7 -1.88755 -0.00219467 3.58862e-07 1.76666e-25
21.1868 4.7 1.88755 -0.00219467 3.58862e-07 1.76666e-25
21.1267 4.7 -1.88755 -0.00219838 3.45147e-07 2.85467e-24
21.1267 4.7 1.88755 -0.00219838 3.45147e-07 2.85467e-24
21.0665 4.7 -1.88755 -0.00220205 3.31419e-07 0
21.0665 4.7 1.88755 -0.00220205 3.31419e-07 0
21.0064 4.7 -1.88755 -0.00220568 3.17648e-07 2.89332e-24
21.0064 4.7 1.88755 -0.00220568 3.17648e-07 2.89332e-24
20.9463 4.7 -1.88755 -0.00220927 3.04004e-07 2.91312e-24
20.9463 4.7 1.88755 -0.00220927 3.04004e-07 2.91312e-24
20.8862 4.7 -1.88755 -0.00221283 2.90351e-07 -3.678e-25
20.8862 4.7 1.88755 -0.00221283 2.90351e-07 -3.678e-25
20.8261 4.7 -1.88755 -0.00221635 2.7665e-07 3.32173e-24
20.8261 4.7 1.88755 -0.00221635 2.7665e-07 3.32173e-24
20.766 4.7 -1.88755 -0.00221983 2.62879e-07 0
20.766 4.7 1.88755 -0.00221983 2.62879e-07 0
20.7059 4.7 -1.88755 -0.00222327 2.49254e-07 0
20.7059 4.7 1.88755 -0.00222327 2.49254e-07 0
20.6458 4.7 -1.88755 -0.00222667 2.3575e-07 -2.82791e-24
20.6458 4.7 1.88755 -0.00222667 2.3575e-07 -2.82791e-24
20.5857 4.7 -1.88755 -0.00223004 2.22369e-07 1.15902e-27
20.5857 4.7 1.88755 -0.00223004 2.22369e-07 1.15902e-27
20.5255 4.7 -1.88755 -0.00223336 2.0907e-07 -3.82636e-25
20.5255 4.7 1.88755 -0.00223336 2.0907e-07 -3.82636e-25
20.4654 4.7 -1.88755 -0.00223664 1.95445e-07 6.35948e-24
20.4654 4.7 1.88755 -0.00223664 1.95445e-07 6.35948e-24
20.4053 4.7 -1.88755 -0.00223987 1.81842e-07 -6.21326e-24
20.4053 4.7 1.88755 -0.00223987 1.81842e-07 -6.21326e-24
20.3452 4.7 -1.88755 -0.00224306 1.69696e-07 -6.06376e-24
20.3452 4.7 1.88755 -0.00224306 1.69696e-07 -6.06376e-24
20.2851 4.7 -1.88755 -0.00224623 1.59002e-07 -1.96521e-25
20.2851 4.7 1.88755 -0.00224623 1.59002e-07 -1.96521e-25
20.225 4.7 -1.88755 -0.00224935 1.45092e-07 0
20.225 4.7 1.88755 -0.00224935 1.45092e-07 0
20.1649 4.7 -1.88755 -0.00225239 1.24981e-07 -6.40483e-24
20.1649 4.7 1.88755 -0.00225239 1.24981e-07 -6.40483e-24
20.1049 4.7 -1.88755 -0.00225532 1.17203e-07 -1.01285e-25
20.1049 4.7 1.88755 -0.00225532 1.17203e-07 -1.01285e-25
20.0436 4.7 -1.88755 -0.00225827 1.16355e-07 1.00026e-25
20.0436 4.7 1.88755 -0.00225827 1.16355e-07 1.00026e-25
19.9809 4.7 -1.88755 -0.00226123 1.15701e-07 6.37922e-24
19.9809 4.7 1.88755 -0.00226123 1.15701e-07 6.37922e-24
19.9169 4.7 -1.88755 -0.00226422 1.15503e-07 -3.97334e-25
19.9169 4.7 1.88755 -0.00226422 1.15503e-07 -3.97334e-25
19.8516 4.7 -1.88755 -0.00226721 1.15337e-07 -5.90415e-24
19.8516 4.7 1.88755 -0.00226721 1.15337e-07 -5.90415e-24
19.7848 4.7 -1.88755 -0.00227024 1.15321e-07 0
19.7848 4.7 1.88755 -0.00227024 1.15321e-07 0
19.7165 4.7 -1.88755 -0.00227328 1.15323e-07 -6.21461e-24
19.7165 4.7 1.88755 -0.00227328 1.15323e-07 -6.21461e-24
19.6468 4.7 -1.88755 -0.00227634 1.15305e-07 0
19.6468 4.7 1.88755 -0.00227634 1.15305e-07 0
19.5755 4.7 -1.88755 -0.0022794 1.14854e-07 -6.13385e-24
19.5755 4.7 1.88755 -0.0022794 1.14854e-07 -6.13385e-24
19.5027 4.7 -1.88755 -0.00228249 1.14453e-07 0
19.5027 4.7 1.88755 -0.00228249 1.14453e-07 0
19.4284 4.7 -1.88755 -0.00228558 1.14074e-07 0
19.4284 4.7 1.88755 -0.00228558 1.14074e-07 0
19.3524 4.7 -1.88755 -0.00228867 1.13721e-07 -7.54582e-25
19.3524 4.7 1.88755 -0.00228867 1.13721e-07 -7.54582e-25
19.2747 4.7 -1.88755 -0.00229177 1.13338e-07 7.44326e-25
19.2747 4.7 1.88755 -0.00229177 1.13338e-07 7.44326e-25
19.1954 4.7 -1.88755 -0.00229488 1.12992e-07 -7.44984e-25
19.1954 4.7 1.88755 -0.00229488 1.12992e-07 -7.44984e-25
19.1144 4.7 -1.88755 -0.00229798 1.12631e-07 2.21523e-24
19.1144 4.7 1.88755 -0.00229798 1.12631e-07 2.21523e-24
19.0315 4.7 -1.88755 -0.00230109 1.12207e-07 1.12599e-26
19.0315 4.7 1.88755 -0.00230109 1.12207e-07 1.12599e-26
18.9469 4.7 -1.88755 -0.00230418 1.11766e-07 1.13988e-26
18.9469 4.7 1.88755 -0.00230418 1.11766e-07 1.13988e-26
18.8605 4.7 -1.88755 -0.00230728 1.11309e-07 -1.30181e-23
18.8605 4.7 1.88755 -0.00230728 1.11309e-07 -1.30181e-23
18.7722 4.7 -1.88755 -0.00231036 1.10871e-07 1.44392e-24
18.7722 4.7 1.88755 -0.00231036 1.10871e-07 1.44392e-24
18.6819 4.7 -1.88755 -0.00231343 1.10412e-07 -2.85832e-24
18.6819 4.7 1.88755 -0.00231343 1.10412e-07 -2.85832e-24
18.5898 4.7 -1.88755 -0.00231648 1.09953e-07 1.41439e-24
18.5898 4.7 1.88755 -0.00231648 1.09953e-07 1.41439e-24
18.4956 4.7 -1.88755 -0.00231952 1.09439e-07 9.87604e-24
18.4956 4.7 1.88755 -0.00231952 1.09439e-07 9.87604e-24
18.3993 4.7 -1.88755 -0.00232253 1.08977e-07 2.80655e-24
18.3993 4.7 1.88755 -0.00232253 1.08977e-07 2.80655e-24
18.301 4.7 -1.88755 -0.00232552 1.08508e-07 -1.3887e-24
18.301 4.7 1.88755 -0.00232552 1.08508e-07 -1.3887e-24
18.2005 4.7 -1.88755 -0.00232848 1.07986e-07 1.1094e-23
18.2005 4.7 1.88755 -0.00232848 1.07986e-07 1.1094e-23
18.0979 4.7 -1.88755 -0.0023314 1.07484e-07 2.20599e-23
18.0979 4.7 1.88755 -0.0023314 1.07484e-07 2.20599e-23
17.993 4.7 -1.88755 -0.00233429 1.06886e-07 2.05572e-23
17.993 4.7 1.88755 -0.00233429 1.06886e-07 2.05572e-23
17.8859 4.7 -1.88755 -0.00233713 1.06235e-07 1.35668e-24
17.8859 4.7 1.88755 -0.00233713 1.06235e-07 1.35668e-24
17.7764 4.7 -1.88755 -0.00233993 1.05566e-07 0
17.7764 4.7 1.88755 -0.00233993 1.05566e-07 0
17.6645 4.7 -1.88755 -0.00234267 1.04888e-07 0
17.6645 4.7 1.88755 -0.00234267 1.04888e-07 0
17.5502 4.7 -1.88755 -0.00234535 1.04147e-07 0
17.5502 4.7 1.88755 -0.00234535 1.04147e-07 0
17.4335 4.7 -1.88755 -0.00234796 1.0337e-07 2.00118e-23
17.4335 4.7 1.88755 -0.00234796 1.0337e-07 2.00118e-23
17.3142 4.7 -1.88755 -0.00235051 1.02518e-07 2.25679e-23
17.3142 4.7 1.88755 -0.00235051 1.02518e-07 2.25679e-23
17.1923 4.7 -1.88755 -0.00235297 1.01633e-07 0
17.1923 4.7 1.88755 -0.00235297 1.01633e-07 0
17.0678 4.7 -1.88755 -0.00235535 1.00619e-07 0
17.0678 4.7 1.88755 -0.00235535 1.00619e-07 0
16.9405 4.7 -1.88755 -0.00235764 9.95857e-08 2.09499e-23
16.9405 4.7 1.88755 -0.00235764 9.95857e-08 2.09499e-23
16.8105 4.7 -1.88755 -0.00235982 9.83714e-08 -2.21699e-23
16.8105 4.7 1.88755 -0.00235982 9.83714e-08 -2.21699e-23
16.6777 4.7 -1.88755 -0.0023619 9.71034e-08 1.29046e-24
16.6777 4.7 1.88755 -0.0023619 9.71034e-08 1.29046e-24
16.542 4.7 -1.88755 -0.00236385 9.56766e-08 -2.19894e-23
16.542 4.7 1.88755 -0.00236385 9.56766e-08 -2.19894e-23
16.4034 4.7 -1.88755 -0.00236567 9.41431e-08 -1.93298e-23
16.4034 4.7 1.88755 -0.00236567 9.41431e-08 -1.93298e-23
16.2617 4.7 -1.88755 -0.00236736 9.24943e-08 0
16.2617 4.7 1.88755 -0.00236736 9.24943e-08 0
16.117 4.7 -1.88755 -0.00236889 9.06897e-08 0
16.117 4.7 1.88755 -0.00236889 9.06897e-08 0
15.9691 4.7 -1.88755 -0.00237026 8.86553e-08 0
15.9691 4.7 1.88755 -0.00237026 8.86553e-08 0
15.818 4.7 -1.88755 -0.00237146 8.64796e-08 -1.28036e-24
15.818 4.7 1.88755 -0.00237146 8.64796e-08 -1.28036e-24
15.6636 4.7 -1.88755 -0.00237246 8.41153e-08 -3.80438e-23
15.6636 4.7 1.88755 -0.00237246 8.41153e-08 -3.80438e-23
15.5059 4.7 -1.88755 -0.00237327 8.14989e-08 -4.17403e-23
15.5059 4.7 1.88755 -0.00237327 8.14989e-08 -4.17403e-23
15.3448 4.7 -1.88755 -0.00237386 7.85646e-08 0
15.3448 4.7 1.88755 -0.00237386 7.85646e-08 0
15.1801 4.7 -1.88755 -0.00237422 7.53486e-08 -1.26995e-24
15.1801 4.7 1.88755 -0.00237422 7.53486e-08 -1.26995e-24
15.0119 4.7 -1.88755 -0.00237432 7.17741e-08 1.24864e-24
15.0119 4.7 1.88755 -0.00237432 7.17741e-08 1.24864e-24
14.84 4.7 -1.88755 -0.00237417 6.78084e-08 0
14.84 4.7 1.88755 -0.00237417 6.78084e-08 0
14.6644 4.7 -1.88755 -0.00237372 6.33128e-08 -1.26639e-24
14.6644 4.7 1.88755 -0.00237372 6.33128e-08 -1.26639e-24
14.485 4.7 -1.88755 -0.00237297 5.83788e-08 2.51099e-24
14.485 4.7 1.88755 -0.00237297 5.83788e-08 2.51099e-24
14.3017 4.7 -1.88755 -0.00237189 5.29956e-08 2.17944e-26
14.3017 4.7 1.88755 -0.00237189 5.29956e-08 2.17944e-26
14.1144 4.7 -1.88755 -0.00237046 4.71071e-08 -1.24466e-24
14.1144 4.7 1.88755 -0.00237046 4.71071e-08 -1.24466e-24
13.9231 4.7 -1.88755 -0.00236868 4.0613e-08 -3.89447e-23
13.9231 4.7 1.88755 -0.00236868 4.0613e-08 -3.89447e-23
13.7276 4.7 -1.88755 -0.00236651 3.34461e-08 -2.51667e-24
13.7276 4.7 1.88755 -0.00236651 3.34461e-08 -2.51667e-24
13.5278 4.7 -1.88755 -0.00236394 2.55496e-08 4.0304e-23
13.5278 4.7 1.88755 -0.00236394 2.55496e-08 4.0304e-23
13.3237 4.7 -1.88755 -0.00236094 1.67429e-08 8.20812e-23
13.3237 4.7 1.88755 -0.00236094 1.67429e-08 8.20812e-23
13.1152 4.7 -1.88755 -0.0023575 6.89229e-09 -7.97671e-23
13.1152 4.7 1.88755 -0.0023575 6.89229e-09 -7.97671e-23
12.9022 4.7 -1.88755 -0.00235358 -4.09284e-09 -1.25722e-24
12.9022 4.7 1.88755 -0.00235358 -4.09284e-09 -1.25722e-24
12.6845 4.7 -1.88755 -0.00234917 -1.62649e-08 8.226e-23
12.6845 4.7 1.88755 -0.00234917 -1.62649e-08 8.226e-23
12.4621 4.7 -1.88755 -0.00234425 -2.98481e-08 8.13406e-23
12.4621 4.7 1.88755 -0.00234425 -2.98481e-08 8.13406e-23
12.2349 4.7 -1.88755 -0.00233879 -4.5053e-08 8.17352e-23
12.2349 4.7 1.88755 -0.00233879 -4.5053e-08 8.17352e-23
12.0027 4.7 -1.88755 -0.00233279 -6.20283e-08 6.39731e-25
12.0027 4.7 1.88755 -0.00233279 -6.20283e-08 6.39731e-25
11.7655 4.7 -1.88755 -0.00232624 -8.091e-08 -8.27288e-23
11.7655 4.7 1.88755 -0.00232624 -8.091e-08 -8.27288e-23
11.5232 4.7 -1.88755 -0.00231913 -1.02115e-07 -9.80298e-25
11.5232 4.7 1.88755 -0.00231913 -1.02115e-07 -9.80298e-25
11.2755 4.7 -1.88755 -0.00231146 -1.25912e-07 3.26426e-25
11.2755 4.7 1.88755 -0.00231146 -1.25912e-07 3.26426e-25
11.0226 4.7 -1.88755 -0.00230324 -1.52667e-07 0
11.0226 4.7 1.88755 -0.00230324 -1.52667e-07 0
10.7641 4.7 -1.88755 -0.00229447 -1.83288e-07 0
10.7641 4.7 1.88755 -0.00229447 -1.83288e-07 0
10.5 4.7 -1.88755 -0.00228515 -2.18128e-07 0
10.5 4.7 1.88755 -0.00228515 -2.18128e-07 0
10.2359 4.7 -1.88755 -0.00227545 -2.55579e-07 0
10.2359 4.7 1.88755 -0.00227545 -2.55579e-07 0
9.97744 4.7 -1.88755 -0.00226567 -2.95014e-07 -1.88191e-25
9.97744 4.7 1.88755 -0.00226567 -2.95014e-07 -1.88191e-25
9.72445 4.7 -1.88755 -0.00225587 -3.37393e-07 -9.9891e-23
9.72445 4.7 1.88755 -0.00225587 -3.37393e-07 -9.9891e-23
9.47684 4.7 -1.88755 -0.00224586 -3.84256e-07 1.05502e-22
9.47684 4.7 1.88755 -0.00224586 -3.84256e-07 1.05502e-22
9.2345 4.7 -1.88755 -0.00223544 -3.94692e-07 1.11193e-22
9.2345 4.7 1.88755 -0.00223544 -3.94692e-07 1.11193e-22
8.9973 4.7 -1.88755 -0.00222718 -3.98582e-07 9.28623e-25
8.9973 4.7 1.88755 -0.00222718 -3.98582e-07 9.28623e-25
8.76514 4.7 -1.88755 -0.00221978 -4.39227e-07 -9.50563e-25
8.76514 4.7 1.88755 -0.00221978 -4.39227e-07 -9.50563e-25
8.53792 4.7 -1.88755 -0.00221272 -4.8323e-07 1.02972e-24
8.53792 4.7 1.88755 -0.00221272 -4.8323e-07 1.02972e-24
8.31552 4.7 -1.88755 -0.00220624 -5.26626e-07 2.99671e-26
8.31552 4.7 1.88755 -0.00220624 -5.26626e-07 2.99671e-26
8.09785 4.7 -1.88755 -0.00220037 -5.70426e-07 -2.25031e-24
8.09785 4.7 1.88755 -0.00220037 -5.70426e-07 -2.25031e-24
7.8848 4.7 -1.88755 -0.00219521 -6.14259e-07 -1.49137e-22
7.8848 4.7 1.88755 -0.00219521 -6.14259e-07 -1.49137e-22
7.67629 4.7 -1.88755 -0.00219084 -6.57739e-07 -1.22859e-24
7.67629 4.7 1.88755 -0.00219084 -6.57739e-07 -1.22859e-24
7.4722 4.7 -1.88755 -0.00218732 -7.01691e-07 -8.51605e-23
7.4722 4.7 1.88755 -0.00218732 -7.01691e-07 -8.51605e-23
7.27245 4.7 -1.88755 -0.00218469 -7.45526e-07 2.75592e-24
7.27245 4.7 1.88755 -0.00218469 -7.45526e-07 2.75592e-24
7.07694 4.7 -1.88755 -0.00218308 -7.88976e-07 -1.42932e-24
7.07694 4.7 1.88755 -0.00218308 -7.88976e-07 -1.42932e-24
6.88558 4.7 -1.88755 -0.00218249 -8.33151e-07 9.74422e-23
6.88558 4.7 1.88755 -0.00218249 -8.33151e-07 9.74422e-23
6.6983 4.7 -1.88755 -0.00218293 -8.7772e-07 0
6.6983 4.7 1.88755 -0.00218293 -8.7772e-07 0
6.51499 4.7 -1.88755 -0.00218447 -9.21554e-07 1.07614e-22
6.51499 4.7 1.88755 -0.00218447 -9.21554e-07 1.07614e-22
6.33558 4.7 -1.88755 -0.00218719 -9.65266e-07 -1.11268e-22
6.33558 4.7 1.88755 -0.00218719 -9.65266e-07 -1.11268e-22
6.15998 4.7 -1.88755 -0.00219111 -1.00933e-06 1.16923e-22
6.15998 4.7 1.88755 -0.00219111 -1.00933e-06 1.16923e-22
5.98811 4.7 -1.88755 -0.0021962 -1.05411e-06 -1.24717e-22
5.98811 4.7 1.88755 -0.0021962 -1.05411e-06 -1.24717e-22
5.81989 4.7 -1.88755 -0.00220245 -1.09882e-06 0
5.81989 4.7 1.88755 -0.00220245 -1.09882e-06 0
5.65525 4.7 -1.88755 -0.00220994 -1.14279e-06 -1.3748e-22
5.65525 4.7 1.88755 -0.00220994 -1.14279e-06 -1.3748e-22
5.4941 4.7 -1.88755 -0.00221867 -1.18765e-06 -2.28416e-24
5.4941 4.7 1.88755 -0.00221867 -1.18765e-06 -2.28416e-24
5.33638 4.7 -1.88755 -0.00222853 -1.2334e-06 4.7341e-24
5.33638 4.7 1.88755 -0.00222853 -1.2334e-06 4.7341e-24
5.18201 4.7 -1.88755 -0.0022395 -1.27938e-06 1.5898e-22
5.18201 4.7 1.88755 -0.0022395 -1.27938e-06 1.5898e-22
5.03092 4.7 -1.88755 -0.0022516 -1.32472e-06 1.64157e-22
5.03092 4.7 1.88755 -0.0022516 -1.32472e-06 1.64157e-22
4.88305 4.7 -1.88755 -0.00226484 -1.37054e-06 0
4.88305 4.7 1.88755 -0.00226484 -1.37054e-06 0
4.73831 4.7 -1.88755 -0.00227904 -1.41841e-06 0
4.73831 4.7 1.88755 -0.00227904 -1.41841e-06 0
4.59665 4.7 -1.88755 -0.00229412 -1.46644e-06 -3.04395e-24
4.59665 4.7 1.88755 -0.00229412 -1.46644e-06 -3.04395e-24
4.458 4.7 -1.88755 -0.00231011 -1.51284e-06 6.30587e-24
4.458 4.7 1.88755 -0.00231011 -1.51284e-06 6.30587e-24
4.32229 4.7 -1.88755 -0.002327 -1.55866e-06 1.02488e-22
4.32229 4.7 1.88755 -0.002327 -1.55866e-06 1.02488e-22
4.18947 4.7 -1.88755 -0.00234469 -1.6062e-06 1.10862e-22
4.18947 4.7 1.88755 -0.00234469 -1.6062e-06 1.10862e-22
4.05947 4.7 -1.88755 -0.00236303 -1.65206e-06 0
4.05947 4.7 1.88755 -0.00236303 -1.65206e-06 0
3.93223 4.7 -1.88755 -0.00238225 -1.69236e-06 0
3.93223 4.7 1.88755 -0.00238225 -1.69236e-06 0
3.8077 4.7 -1.88755 -0.00240243 -1.7303e-06 -1.27624e-22
3.8077 4.7 1.88755 -0.00240243 -1.7303e-06 -1.27624e-22
3.68581 4.7 -1.88755 -0.00242349 -1.76791e-06 4.22964e-24
3.68581 4.7 1.88755 -0.00242349 -1.76791e-06 4.22964e-24
3.56652 4.7 -1.88755 -0.00244538 -1.80115e-06 1.40192e-22
3.56652 4.7 1.88755 -0.00244538 -1.80115e-06 1.40192e-22
3.44975 4.7 -1.88755 -0.00246833 -1.82869e-06 -4.53266e-24
3.44975 4.7 1.88755 -0.00246833 -1.82869e-06 -4.53266e-24
3.33547 4.7 -1.88755 -0.0024923 -1.85526e-06 0
3.33547 4.7 1.88755 -0.0024923 -1.85526e-06 0
3.22362 4.7 -1.88755 -0.00251713 -1.88088e-06 0
3.22362 4.7 1.88755 -0.00251713 -1.88088e-06 0
3.11414 4.7 -1.88755 -0.00254284 -1.89864e-06 1.6849e-22
3.11414 4.7 1.88755 -0.00254284 -1.89864e-06 1.6849e-22
3.00699 4.7 -1.88755 -0.00256967 -1.91054e-06 1.7638e-22
3.00699 4.7 1.88755 -0.00256967 -1.91054e-06 1.7638e-22
2.90212 4.7 -1.88755 -0.0025975 -1.92267e-06 0
2.90212 4.7 1.88755 -0.0025975 -1.92267e-06 0
2.79947 4.7 -1.88755 -0.00262612 -1.92753e-06 0
2.79947 4.7 1.88755 -0.00262612 -1.92753e-06 0
2.69901 4.7 -1.88755 -0.00265588 -1.92241e-06 -6.38984e-24
2.69901 4.7 1.88755 -0.00265588 -1.92241e-06 -6.38984e-24
2.60068 4.7 -1.88755 -0.00268678 -1.91352e-06 6.53555e-24
2.60068 4.7 1.88755 -0.00268678 -1.91352e-06 6.53555e-24
2.50444 4.7 -1.88755 -0.00271863 -1.90052e-06 0
2.50444 4.7 1.88755 -0.00271863 -1.90052e-06 0
2.41024 4.7 -1.88755 -0.00275157 -1.87194e-06 -3.65481e-24
2.41024 4.7 1.88755 -0.00275157 -1.87194e-06 -3.65481e-24
2.31805 4.7 -1.88755 -0.00278601 -1.83571e-06 3.73785e-24
2.31805 4.7 1.88755 -0.00278601 -1.83571e-06 3.73785e-24
2.22782 4.7 -1.88755 -0.00282164 -1.79657e-06 1.26392e-22
2.22782 4.7 1.88755 -0.00282164 -1.79657e-06 1.26392e-22
2.1395 4.7 -1.88755 -0.00285851 -1.73787e-06 0
2.1395 4.7 1.88755 -0.00285851 -1.73787e-06 0
2.05306 4.7 -1.88755 -0.00289727 -1.66722e-06 1.42371e-22
2.05306 4.7 1.88755 -0.00289727 -1.66722e-06 1.42371e-22
1.96845 4.7 -1.88755 -0.00293765 -1.59285e-06 -9.01173e-24
1.96845 4.7 1.88755 -0.00293765 -1.59285e-06 -9.01173e-24
1.88565 4.7 -1.88755 -0.00297953 -1.49969e-06 4.65625e-24
1.88565 4.7 1.88755 -0.00297953 -1.49969e-06 4.65625e-24
1.8046 4.7 -1.88755 -0.00302356 -1.39189e-06 0
1.8046 4.7 1.88755 -0.00302356 -1.39189e-06 0
1.72528 4.7 -1.88755 -0.00306944 -1.28301e-06 1.69221e-22
1.72528 4.7 1.88755 -0.00306944 -1.28301e-06 1.69221e-22
1.64764 4.7 -1.88755 -0.00311677 -1.15456e-06 -5.29572e-24
1.64764 4.7 1.88755 -0.00311677 -1.15456e-06 -5.29572e-24
1.57165 4.7 -1.88755 -0.00316675 -9.74034e-07 1.7853e-22
1.57165 4.7 1.88755 -0.00316675 -9.74034e-07 1.7853e-22
1.49727 4.7 -1.88755 -0.00322163 -7.06295e-07 0
1.49727 4.7 1.88755 -0.00322163 -7.06295e-07 0
1.42448 4.7 -1.88755 -0.00328517 -4.34787e-07 3.06062e-24
1.42448 4.7 1.88755 -0.00328517 -4.34787e-07 3.06062e-24
1.35323 4.7 -1.88755 -0.00335334 -2.01488e-07 -3.1285e-24
1.35323 4.7 1.88755 -0.00335334 -2.01488e-07 -3.1285e-24
1.2835 4.7 -1.88755 -0.00342627 4.832e-08 1.05222e-22
1.2835 4.7 1.88755 -0.00342627 4.832e-08 1.05222e-22
1.21524 4.7 -1.88755 -0.00350417 3.124e-07 1.72675e-24
1.21524 4.7 1.88755 -0.00350417 3.124e-07 1.72675e-24
1.14844 4.7 -1.88755 -0.00358712 5.95717e-07 -1.76477e-24
1.14844 4.7 1.88755 -0.00358712 5.95717e-07 -1.76477e-24