/*--------------------------------*- C++ -*----------------------------------*\
| =========                 |                                                 |
| \\      /  F ield         | OpenFOAM: The Open Source CFD Toolbox           |
|  \\    /   O peration     | Version:  2412                                  |
|   \\  /    A nd           | Website:  www.openfoam.com                      |
|    \\/     M anipulation  |                                                 |
\*---------------------------------------------------------------------------*/
FoamFile
{
    version     2.0;
    format      ascii;
    arch        "LSB;label=32;scalar=64";
    class       volScalarField;
    location    "2000";
    object      epsilon;
}
// * * * * * * * * * * * * * * * * * * * * * * * * * * * * * * * * * * * * * //

dimensions      [0 2 -3 0 0 0 0];

internalField   nonuniform List<scalar> 
32240
(
0.0179287
0.00476398
0.00188033
0.00110239
0.000820141
0.000640246
0.000495463
0.000382801
0.000297205
0.000232773
0.00018435
0.000147862
0.000120228
9.9156e-05
8.29633e-05
7.04175e-05
6.06185e-05
5.29079e-05
4.68026e-05
4.19471e-05
3.80777e-05
3.49985e-05
3.2563e-05
3.06615e-05
2.92118e-05
2.81527e-05
2.74388e-05
2.70364e-05
2.69206e-05
2.70721e-05
2.74774e-05
2.81257e-05
2.90121e-05
3.00423e-05
3.10946e-05
3.21783e-05
3.33213e-05
3.45607e-05
3.59381e-05
3.74988e-05
3.92916e-05
4.13705e-05
4.37974e-05
4.66448e-05
5.00005e-05
5.39732e-05
5.87002e-05
6.43577e-05
7.11763e-05
7.94621e-05
8.96292e-05
0.000102247
0.000118114
0.000138371
0.000164679
0.000199504
0.000246558
0.000311455
0.000402495
0.000530993
0.000710693
0.00100472
0.00176397
0.00448117
0.0166278
0.0185466
0.00489965
0.00193649
0.00113952
0.000847585
0.000657936
0.000506614
0.000390044
0.00030225
0.000236641
0.00018761
0.000150815
0.000123016
0.000101843
8.55715e-05
7.29526e-05
6.30808e-05
5.52981e-05
4.91237e-05
4.42046e-05
4.02795e-05
3.71542e-05
3.46836e-05
3.2759e-05
3.12993e-05
3.02438e-05
2.95473e-05
2.91765e-05
2.91062e-05
2.93157e-05
2.97908e-05
3.05166e-05
3.14842e-05
3.25856e-05
3.36927e-05
3.48185e-05
3.59952e-05
3.72638e-05
3.86695e-05
4.02602e-05
4.20868e-05
4.4205e-05
4.66776e-05
4.95778e-05
5.29935e-05
5.70332e-05
6.18335e-05
6.75695e-05
7.44702e-05
8.28398e-05
9.30897e-05
0.000105787
0.000121729
0.000142057
0.000168444
0.000203388
0.000250693
0.000316195
0.000408723
0.000540732
0.000727776
0.00103068
0.00180189
0.00455815
0.0169439
0.0187765
0.004952
0.00196041
0.00115632
0.000859824
0.000665361
0.000510969
0.000392719
0.000304067
0.000238046
0.000188831
0.000151957
0.000124125
0.000102935
8.66484e-05
7.40108e-05
6.41169e-05
5.63102e-05
5.01119e-05
4.51706e-05
4.12264e-05
3.8086e-05
3.56051e-05
3.36755e-05
3.22163e-05
3.11672e-05
3.04832e-05
3.0131e-05
3.00851e-05
3.03243e-05
3.08339e-05
3.15969e-05
3.2602e-05
3.37351e-05
3.48649e-05
3.60066e-05
3.71944e-05
3.84713e-05
3.98844e-05
4.14826e-05
4.33182e-05
4.54474e-05
4.79335e-05
5.085e-05
5.42847e-05
5.8346e-05
6.31698e-05
6.89302e-05
7.58547e-05
8.42452e-05
9.45101e-05
0.000107213
0.000123145
0.000143447
0.000169781
0.000204641
0.000251846
0.000317302
0.000410074
0.000543263
0.000733849
0.00104313
0.00182625
0.0046218
0.0172307
0.0192169
0.00504995
0.00200273
0.0011851
0.000881443
0.000679653
0.0005204
0.000399178
0.000308813
0.000241839
0.000192096
0.000154915
0.000126882
0.000105533
8.91093e-05
7.63498e-05
6.63465e-05
5.84424e-05
5.21588e-05
4.71442e-05
4.3139e-05
3.99499e-05
3.74326e-05
3.54792e-05
3.40088e-05
3.29612e-05
3.22916e-05
3.19664e-05
3.19599e-05
3.22496e-05
3.28194e-05
3.36495e-05
3.4724e-05
3.59173e-05
3.70927e-05
3.82685e-05
3.94831e-05
4.07829e-05
4.2218e-05
4.38402e-05
4.57037e-05
4.78663e-05
5.03927e-05
5.33574e-05
5.68491e-05
6.0977e-05
6.58773e-05
7.17249e-05
7.8747e-05
8.72453e-05
9.7627e-05
0.000110453
0.00012651
0.000146931
0.000173389
0.000208404
0.000255858
0.000321815
0.000415716
0.000551536
0.000747837
0.0010643
0.00185845
0.00469017
0.017521
0.0195549
0.00512482
0.00203462
0.00120587
0.000895625
0.000687969
0.000525194
0.000402153
0.000310904
0.000243511
0.000193573
0.000156306
0.000128236
0.00010687
9.04343e-05
7.76601e-05
6.76388e-05
5.97148e-05
5.34112e-05
4.83784e-05
4.43584e-05
4.11592e-05
3.86375e-05
3.66861e-05
3.52249e-05
3.41941e-05
3.35492e-05
3.32567e-05
3.32905e-05
3.36277e-05
3.42502e-05
3.51355e-05
3.62637e-05
3.74993e-05
3.8702e-05
3.98937e-05
4.11159e-05
4.24183e-05
4.38534e-05
4.5475e-05
4.73384e-05
4.95027e-05
5.20328e-05
5.50035e-05
5.85035e-05
6.26412e-05
6.75525e-05
7.3411e-05
8.04429e-05
8.89477e-05
9.93306e-05
0.00011215
0.000128192
0.000148587
0.000175006
0.000209971
0.000257373
0.000323339
0.000417534
0.000554595
0.000754638
0.00107814
0.00188411
0.00475217
0.0177929
0.0199784
0.00521934
0.00207693
0.00123529
0.000917816
0.000702613
0.000534957
0.000409004
0.000316074
0.000247731
0.000197237
0.000159608
0.000131269
0.000109689
9.30721e-05
8.01409e-05
6.99824e-05
6.19386e-05
5.55317e-05
5.04116e-05
4.63194e-05
4.30629e-05
4.04984e-05
3.85185e-05
3.70429e-05
3.60116e-05
3.53802e-05
3.51148e-05
3.51885e-05
3.55779e-05
3.62623e-05
3.7216e-05
3.84148e-05
3.97106e-05
4.09582e-05
4.21829e-05
4.34306e-05
4.4755e-05
4.6212e-05
4.78583e-05
4.97515e-05
5.19523e-05
5.45274e-05
5.75524e-05
6.11173e-05
6.53312e-05
7.03308e-05
7.62902e-05
8.3436e-05
9.20681e-05
0.000102591
0.000115564
0.000131769
0.000152336
0.000178931
0.000214077
0.000261718
0.00032812
0.000423306
0.000562801
0.000768541
0.0011002
0.00191956
0.00482954
0.0181251
0.0203516
0.00530178
0.00211222
0.00125808
0.000933081
0.000711516
0.00054015
0.000412298
0.00031846
0.000249697
0.000199016
0.000161308
0.000132935
0.000111333
9.46931e-05
8.17363e-05
7.15498e-05
6.34779e-05
5.70448e-05
5.1902e-05
4.77925e-05
4.45252e-05
4.19572e-05
3.9982e-05
3.85199e-05
3.75116e-05
3.69128e-05
3.66898e-05
3.68151e-05
3.72651e-05
3.8016e-05
3.9039e-05
4.03045e-05
4.16521e-05
4.29321e-05
4.41743e-05
4.54291e-05
4.67538e-05
4.82078e-05
4.98499e-05
5.17396e-05
5.39389e-05
5.65151e-05
5.95443e-05
6.31163e-05
6.73401e-05
7.23517e-05
7.83242e-05
8.54828e-05
9.41253e-05
0.000104654
0.000117623
0.000133812
0.000154346
0.000180888
0.000215969
0.00026354
0.000329931
0.000425379
0.000566053
0.000775565
0.00111463
0.00194637
0.00489271
0.0184003
0.0207903
0.00539955
0.00215647
0.00128864
0.000955641
0.00072622
0.000549997
0.000419355
0.000323922
0.000254219
0.000202949
0.000164838
0.000136163
0.000114319
9.74754e-05
8.43435e-05
7.40055e-05
6.58031e-05
5.92586e-05
5.40226e-05
4.9837e-05
4.651e-05
4.38985e-05
4.18954e-05
4.0421e-05
3.94156e-05
3.88348e-05
3.86446e-05
3.88165e-05
3.93262e-05
4.01468e-05
4.12457e-05
4.25876e-05
4.39983e-05
4.5323e-05
4.65961e-05
4.78727e-05
4.92152e-05
5.06866e-05
5.23492e-05
5.42648e-05
5.64975e-05
5.9116e-05
6.21978e-05
6.58336e-05
7.01334e-05
7.52338e-05
8.13088e-05
8.8584e-05
9.7358e-05
0.000108033
0.000121164
0.00013753
0.000158256
0.000185009
0.000220326
0.000268189
0.000335017
0.000431326
0.000574094
0.000788787
0.0011365
0.00198305
0.00497325
0.0187464
0.0211947
0.00548879
0.0021953
0.00131384
0.000972519
0.000736175
0.000555989
0.000423309
0.000326886
0.000256718
0.000205226
0.000166998
0.00013825
0.000116345
9.9446e-05
8.62603e-05
7.58714e-05
6.76222e-05
6.10371e-05
5.57677e-05
5.15571e-05
4.82143e-05
4.55967e-05
4.35982e-05
4.21392e-05
4.11608e-05
4.06189e-05
4.04794e-05
4.07129e-05
4.12949e-05
4.21949e-05
4.33761e-05
4.47968e-05
4.62678e-05
4.76295e-05
4.89217e-05
5.0205e-05
5.15463e-05
5.30128e-05
5.46696e-05
5.6581e-05
5.88124e-05
6.14338e-05
6.45231e-05
6.81715e-05
7.24889e-05
7.76118e-05
8.37134e-05
9.10185e-05
9.98239e-05
0.00011053
0.000123687
0.000140072
0.000160803
0.00018754
0.000222821
0.000270641
0.000337487
0.000434099
0.000578129
0.000796847
0.00115263
0.00201295
0.00504202
0.0190445
0.0216507
0.00559015
0.00224138
0.00134518
0.000994982
0.000750574
0.000565619
0.000430289
0.000332379
0.000261335
0.000209284
0.000170664
0.000141614
0.000119463
0.000102355
8.89896e-05
7.84454e-05
7.0063e-05
6.33649e-05
5.80017e-05
5.37156e-05
5.03148e-05
4.76566e-05
4.56342e-05
4.41681e-05
4.31993e-05
4.26834e-05
4.25861e-05
4.28766e-05
4.35299e-05
4.45114e-05
4.57798e-05
4.72863e-05
4.88256e-05
5.02327e-05
5.15532e-05
5.28536e-05
5.42066e-05
5.56837e-05
5.73538e-05
5.92839e-05
6.15416e-05
6.41984e-05
6.73336e-05
7.10391e-05
7.54256e-05
8.06301e-05
8.68265e-05
9.42397e-05
0.000103167
0.000114008
0.000127314
0.000143859
0.000164762
0.000191682
0.000227159
0.000275209
0.000342387
0.000439662
0.000585388
0.000808758
0.00117345
0.00204955
0.00512273
0.019391
0.0220875
0.0056865
0.00228409
0.00137304
0.00101366
0.000761774
0.000572629
0.000435144
0.000336151
0.00026455
0.000212192
0.000173378
0.000144186
0.000121918
0.000104707
9.12502e-05
8.06247e-05
7.21716e-05
6.54141e-05
6.00033e-05
5.56817e-05
5.2258e-05
4.95896e-05
4.75704e-05
4.61212e-05
4.51832e-05
4.47125e-05
4.46745e-05
4.50375e-05
4.57756e-05
4.68503e-05
4.82151e-05
4.9813e-05
5.1421e-05
5.28692e-05
5.42095e-05
5.55153e-05
5.68649e-05
5.83348e-05
5.99974e-05
6.19227e-05
6.41801e-05
6.68426e-05
6.99905e-05
7.37164e-05
7.81314e-05
8.33727e-05
8.9614e-05
9.70798e-05
0.000106067
0.000116973
0.000130348
0.000146963
0.000167932
0.00019491
0.000230436
0.000278536
0.000345819
0.000443456
0.000590454
0.000817851
0.00119114
0.00208263
0.00519735
0.0197127
0.0225619
0.00579166
0.00233209
0.00140518
0.00103603
0.000775907
0.000582082
0.000442071
0.000341685
0.000269265
0.000216376
0.000177181
0.000147691
0.000125176
0.000107756
9.41173e-05
8.33357e-05
7.47493e-05
6.78796e-05
6.23767e-05
5.79821e-05
5.45041e-05
5.17998e-05
4.97627e-05
4.83138e-05
4.73943e-05
4.696e-05
4.69762e-05
4.74101e-05
4.82339e-05
4.94053e-05
5.08718e-05
5.25677e-05
5.42509e-05
5.57459e-05
5.71118e-05
5.84292e-05
5.97831e-05
6.12552e-05
6.29222e-05
6.48571e-05
6.71318e-05
6.98208e-05
7.30056e-05
7.67798e-05
8.12549e-05
8.65688e-05
9.28954e-05
0.00010046
0.000109558
0.000120588
0.000134099
0.000150859
0.000171982
0.000199121
0.000234812
0.000283094
0.000350628
0.000448774
0.000597172
0.000828758
0.00121111
0.00211937
0.00527855
0.0200607
0.0230294
0.00589475
0.00237853
0.00143547
0.00105624
0.00078818
0.000590016
0.000447776
0.000346234
0.000273178
0.000219902
0.00018044
0.000150743
0.000128057
0.000110488
9.67214e-05
8.58287e-05
7.7148e-05
7.02004e-05
6.46356e-05
6.01952e-05
5.66873e-05
5.39692e-05
5.19346e-05
5.05046e-05
4.96208e-05
4.92394e-05
4.93248e-05
4.98446e-05
5.07679e-05
5.20485e-05
5.36273e-05
5.54288e-05
5.71899e-05
5.87297e-05
6.01153e-05
6.14355e-05
6.27823e-05
6.42433e-05
6.58998e-05
6.7828e-05
7.01022e-05
7.27986e-05
7.60002e-05
7.98011e-05
8.43139e-05
8.96766e-05
9.60634e-05
0.000103699
0.00011288
0.000124004
0.000137616
0.000154487
0.000175723
0.000202975
0.000238777
0.000287174
0.000354868
0.000453389
0.000602968
0.000838386
0.00122967
0.00215485
0.00535766
0.0203999
0.0235242
0.00600415
0.00242873
0.00146859
0.00107872
0.000802253
0.000599485
0.000454816
0.000351943
0.000278096
0.000224297
0.00018445
0.000154447
0.000131506
0.000113719
9.97646e-05
8.87114e-05
7.98947e-05
7.28339e-05
6.71775e-05
6.26663e-05
5.91078e-05
5.63588e-05
5.43131e-05
5.2892e-05
5.2037e-05
5.17044e-05
5.18581e-05
5.24655e-05
5.34922e-05
5.4888e-05
5.65863e-05
5.85007e-05
6.03455e-05
6.19341e-05
6.33422e-05
6.46676e-05
6.60102e-05
6.7464e-05
6.91151e-05
7.10431e-05
7.33252e-05
7.60395e-05
7.92699e-05
8.31118e-05
8.76784e-05
9.3108e-05
9.95755e-05
0.000107306
0.000116595
0.000127841
0.000141588
0.000158605
0.000179997
0.00020741
0.000243378
0.000291949
0.000359863
0.000458803
0.000609563
0.000848755
0.00124917
0.00219229
0.00544036
0.020753
0.0240209
0.00611363
0.00247875
0.00150107
0.00110021
0.000815446
0.000608254
0.000461311
0.000357225
0.000282674
0.000228415
0.000188233
0.000157964
0.000134801
0.000116824
0.000102708
9.15158e-05
8.2583e-05
7.54273e-05
6.96964e-05
6.51303e-05
6.15363e-05
5.87711e-05
5.67285e-05
5.533e-05
5.45176e-05
5.42477e-05
5.44833e-05
5.51924e-05
5.63363e-05
5.78605e-05
5.96902e-05
6.17268e-05
6.36596e-05
6.52965e-05
6.6723e-05
6.80469e-05
6.93767e-05
7.08133e-05
7.24481e-05
7.4365e-05
7.66436e-05
7.93642e-05
8.26122e-05
8.6484e-05
9.10934e-05
9.65795e-05
0.000103117
0.000110932
0.00012032
0.000131679
0.000145553
0.000162707
0.000184246
0.000211812
0.000247935
0.000296665
0.000364773
0.000464077
0.00061589
0.000858602
0.00126808
0.00222957
0.0055229
0.0211049
0.0245376
0.00622766
0.00253146
0.0015354
0.00112303
0.000829702
0.000617967
0.000468657
0.000363266
0.00028792
0.000233121
0.000192532
0.000161935
0.000138496
0.000120286
0.00010597
9.46085e-05
8.55333e-05
7.82606e-05
7.24365e-05
6.78002e-05
6.41582e-05
6.13671e-05
5.93206e-05
5.79403e-05
5.71686e-05
5.69618e-05
5.72824e-05
5.80985e-05
5.93672e-05
6.10286e-05
6.2999e-05
6.51666e-05
6.71935e-05
6.88815e-05
7.03271e-05
7.16488e-05
7.29647e-05
7.43833e-05
7.60019e-05
7.79083e-05
8.01854e-05
8.29153e-05
8.61851e-05
9.00922e-05
9.47511e-05
0.000100302
0.000106919
0.000114829
0.000124328
0.000135814
0.00014983
0.000167141
0.000188848
0.000216591
0.000252895
0.000301813
0.000370139
0.000469811
0.000622622
0.00086869
0.00128725
0.00226789
0.00560739
0.0214637
0.0250611
0.00634299
0.00258481
0.00156979
0.00114555
0.000843685
0.000627498
0.000475894
0.000369243
0.000293129
0.000237803
0.000196816
0.000165899
0.000142192
0.000123755
0.000109245
9.77209e-05
8.85104e-05
8.1128e-05
7.52186e-05
7.05203e-05
6.68391e-05
6.40313e-05
6.19906e-05
6.0639e-05
5.99192e-05
5.97879e-05
6.02064e-05
6.11435e-05
6.25512e-05
6.43644e-05
6.6489e-05
6.87984e-05
7.09251e-05
7.26648e-05
7.41263e-05
7.544e-05
7.67346e-05
7.81271e-05
7.97209e-05
8.16085e-05
8.38762e-05
8.66082e-05
8.98934e-05
9.38301e-05
9.85338e-05
0.000104145
0.000110839
0.000118843
0.000128453
0.000140065
0.000154225
0.000171695
0.000193575
0.0002215
0.000257993
0.000307103
0.000375644
0.000475656
0.00062937
0.000878556
0.00130606
0.00230635
0.00569224
0.0218232
0.0255994
0.00646164
0.00264012
0.00160539
0.00116883
0.000858308
0.000637639
0.000483707
0.000375747
0.000298811
0.000242906
0.000201475
0.000170195
0.000146186
0.000127492
0.000112765
0.000101058
9.16951e-05
8.41894e-05
7.81836e-05
7.34145e-05
6.96876e-05
6.68587e-05
6.48216e-05
6.34987e-05
6.28332e-05
6.27818e-05
6.33051e-05
6.43718e-05
6.59295e-05
6.79064e-05
7.01975e-05
7.26596e-05
7.48927e-05
7.66863e-05
7.81625e-05
7.94653e-05
8.07348e-05
8.20969e-05
8.36621e-05
8.55279e-05
8.77839e-05
9.05169e-05
9.38172e-05
9.77846e-05
0.000102535
0.00010821
0.000114986
0.000123089
0.000132816
0.000144565
0.000158878
0.00017652
0.000198586
0.000226711
0.000263409
0.00031273
0.000381497
0.000481838
0.000636377
0.000888454
0.00132475
0.00234526
0.00577796
0.022185
0.0261458
0.00658198
0.00269642
0.00164137
0.00119217
0.000873001
0.000647908
0.000491676
0.000382412
0.000304644
0.000248146
0.000206255
0.000174602
0.00015028
0.000131323
0.000116373
0.00010448
9.49643e-05
8.73357e-05
8.12354e-05
7.63989e-05
7.26307e-05
6.97866e-05
6.77603e-05
6.64748e-05
6.58734e-05
6.59135e-05
6.65553e-05
6.77662e-05
6.94897e-05
7.16467e-05
7.41196e-05
7.67472e-05
7.90937e-05
8.09425e-05
8.24305e-05
8.37166e-05
8.49535e-05
8.62773e-05
8.7806e-05
8.96425e-05
9.18802e-05
9.46086e-05
9.79199e-05
0.000101915
0.000106711
0.000112449
0.000119308
0.000127513
0.000137363
0.000149254
0.000163731
0.000181555
0.000203822
0.000232162
0.000269086
0.000318636
0.000387644
0.000488308
0.000643597
0.000898323
0.00134318
0.00238432
0.00586387
0.0225461
0.0267027
0.00670466
0.00275419
0.00167819
0.00121603
0.000888181
0.000658677
0.00050013
0.000389524
0.000310878
0.000253741
0.00021135
0.000179289
0.000154626
0.000135381
0.00012019
0.000108095
9.8414e-05
9.06529e-05
8.44507e-05
7.95416e-05
7.57292e-05
7.28689e-05
7.08546e-05
6.96096e-05
6.90781e-05
6.92169e-05
6.99882e-05
7.13557e-05
7.32594e-05
7.56119e-05
7.8282e-05
8.10881e-05
8.35558e-05
8.54616e-05
8.69592e-05
8.82236e-05
8.94215e-05
9.07002e-05
9.21856e-05
9.39869e-05
9.62013e-05
9.89212e-05
0.000102241
0.000106262
0.000111104
0.000116908
0.000123853
0.000132167
0.000142146
0.00015419
0.000168843
0.000186865
0.000209352
0.00023793
0.000275106
0.000324915
0.00039419
0.00049518
0.000651154
0.00090827
0.00136134
0.0024234
0.00594961
0.0229044
0.0272669
0.00682896
0.00281306
0.00171554
0.00124017
0.00090369
0.000669815
0.00050895
0.000396968
0.000317402
0.000259587
0.000216662
0.000184163
0.000159137
0.000139588
0.000124142
0.000111837
0.000101984
9.40871e-05
8.77818e-05
8.28008e-05
7.89467e-05
7.60745e-05
7.40784e-05
7.28822e-05
7.24306e-05
7.26805e-05
7.35956e-05
7.51362e-05
7.72381e-05
7.9805e-05
8.26904e-05
8.56904e-05
8.82876e-05
9.02522e-05
9.17561e-05
9.29923e-05
9.41429e-05
9.53673e-05
9.68007e-05
9.85583e-05
0.000100742
0.000103448
0.000106771
0.000110816
0.000115702
0.000121573
0.000128608
0.000137035
0.000147153
0.000159363
0.000174208
0.000192452
0.000215188
0.000244043
0.000281521
0.000331652
0.000401269
0.000502659
0.000659333
0.000918644
0.0013796
0.0024628
0.00603646
0.0232654
0.0278432
0.00695607
0.00287354
0.00175374
0.0012649
0.000919841
0.000681603
0.00051836
0.000404924
0.00032436
0.000265799
0.000222285
0.000189307
0.000163885
0.000144006
0.000128288
0.000115757
0.000105722
9.76811e-05
9.12675e-05
8.62117e-05
8.23154e-05
7.9433e-05
7.74588e-05
7.63173e-05
7.59541e-05
7.63259e-05
7.73986e-05
7.91283e-05
8.14467e-05
8.42472e-05
8.73669e-05
9.05768e-05
9.33127e-05
9.53381e-05
9.68449e-05
9.80462e-05
9.9141e-05
0.000100302
0.000101674
0.000103379
0.000105525
0.000108209
0.00011153
0.000115595
0.000120523
0.00012646
0.000133585
0.00014213
0.000152395
0.000164781
0.000179837
0.000198327
0.000221353
0.000250543
0.000288411
0.000339001
0.000409183
0.000511345
0.000669363
0.000932018
0.00140351
0.00250501
0.00613071
0.0236575
0.028447
0.00708932
0.00293702
0.00179465
0.00129113
0.000937188
0.000694333
0.000528494
0.00041343
0.000331741
0.000272345
0.000228179
0.000194678
0.000168828
0.000148597
0.00013259
0.000119823
0.000109598
0.000101409
9.48853e-05
8.97552e-05
8.58191e-05
8.29309e-05
8.09853e-05
7.99074e-05
7.96439e-05
8.01513e-05
8.13982e-05
8.33361e-05
8.58919e-05
8.89485e-05
9.2324e-05
9.57619e-05
9.86467e-05
0.000100735
0.000102241
0.000103399
0.000104428
0.000105515
0.000106815
0.000108458
0.000110556
0.000113211
0.000116525
0.000120603
0.000125569
0.000131568
0.000138783
0.000147443
0.000157853
0.000170415
0.00018568
0.000204418
0.00022773
0.000257252
0.000295504
0.000346544
0.000417268
0.000520158
0.000679424
0.000945214
0.00142692
0.00254727
0.00622597
0.0240532
0.0290936
0.00723193
0.00300543
0.00184274
0.0013205
0.000956338
0.000708168
0.000539348
0.000422441
0.000339502
0.000279193
0.000234326
0.000200268
0.000173968
0.00015337
0.000137061
0.000124051
0.00011363
0.000105289
9.86533e-05
9.3449e-05
8.94749e-05
8.6585e-05
8.46741e-05
8.36683e-05
8.35156e-05
8.41724e-05
8.56104e-05
8.77763e-05
9.0592e-05
9.39281e-05
9.75825e-05
0.000101268
0.000104313
0.000106465
0.000107966
0.000109073
0.000110026
0.000111027
0.000112244
0.000113814
0.000115855
0.000118473
0.000121771
0.000125859
0.000130859
0.000136919
0.000144222
0.000153
0.000163558
0.000176302
0.000191784
0.000210777
0.000234388
0.000264258
0.000302911
0.000354419
0.000425704
0.000529328
0.000689806
0.000958547
0.00145001
0.00258927
0.00632127
0.0244472
0.0297483
0.00737602
0.00307441
0.00189051
0.00134949
0.000975303
0.000721985
0.000550294
0.0004316
0.000347437
0.000286223
0.000240654
0.000206034
0.000179277
0.000158304
0.000141688
0.000128428
0.000117809
0.000109313
0.000102565
9.72877e-05
9.3279e-05
9.03925e-05
8.85238e-05
8.76003e-05
8.75714e-05
8.83938e-05
9.00415e-05
9.24579e-05
9.55585e-05
9.92009e-05
0.00010316
0.000107115
0.000110331
0.000112551
0.000114041
0.000115088
0.000115952
0.000116854
0.000117974
0.000119459
0.000121433
0.000124004
0.00012728
0.00013137
0.000136401
0.000142519
0.000149909
0.000158805
0.000169514
0.000182444
0.000198151
0.000217409
0.000241331
0.000271563
0.000310639
0.000362638
0.00043451
0.00053889
0.000700568
0.000972129
0.00147295
0.00263125
0.00641716
0.0248416
0.0304148
0.00752277
0.0031449
0.00193916
0.0013791
0.000994844
0.000736337
0.000561715
0.000441174
0.000355729
0.000293563
0.000247253
0.000212041
0.000184802
0.000163436
0.000146499
0.000132978
0.000122152
0.000113498
0.000106635
0.000101284
9.72429e-05
9.43645e-05
9.25454e-05
9.17143e-05
9.18219e-05
9.28281e-05
9.47058e-05
9.73967e-05
0.000100809
0.000104786
0.000109078
0.000113326
0.000116728
0.000119017
0.000120491
0.000121467
0.000122229
0.000123018
0.000124027
0.000125414
0.000127307
0.000129822
0.000133066
0.000137152
0.000142207
0.000148379
0.000155855
0.00016487
0.000175731
0.000188851
0.000204787
0.000224318
0.000248562
0.000279171
0.000318684
0.000371195
0.000443676
0.000548827
0.000711687
0.000985924
0.00149566
0.00267301
0.00651327
0.0252347
0.0310925
0.00767194
0.00321671
0.00198847
0.00140912
0.00101478
0.000751073
0.000573489
0.000451064
0.000364304
0.000301157
0.000254082
0.000218256
0.00019052
0.000168747
0.000151479
0.000137691
0.000126653
0.000117837
0.000110859
0.000105436
0.000101366
9.85023e-05
9.67416e-05
9.60147e-05
9.62735e-05
9.74825e-05
9.96128e-05
0.000102605
0.000106359
0.000110703
0.000115358
0.000119925
0.000123526
0.000125887
0.00012734
0.000128232
0.000128878
0.000129538
0.00013042
0.000131694
0.000133494
0.00013594
0.000139142
0.000143217
0.00014829
0.000154513
0.000162072
0.000171205
0.000182221
0.000195534
0.000211706
0.00023152
0.000256097
0.000287096
0.000327066
0.000380111
0.000453226
0.000559171
0.000723205
0.000999991
0.00151819
0.00271449
0.00660948
0.0256259
0.0317802
0.00782336
0.00328975
0.00203837
0.00143955
0.00103514
0.000766224
0.000585652
0.000461306
0.000373194
0.000309032
0.000261164
0.000224703
0.00019645
0.000174256
0.000156645
0.000142581
0.000131325
0.000122343
0.000115247
0.000109754
0.000105659
0.000102815
0.000101121
0.000100511
0.000100937
0.000102369
0.000104776
0.000108097
0.000112226
0.000116971
0.000122024
0.000126939
0.000130755
0.000133191
0.000134615
0.000135411
0.000135924
0.000136437
0.000137176
0.000138319
0.000140011
0.000142375
0.000145525
0.000149577
0.000154662
0.000160929
0.000168568
0.000177816
0.000188987
0.000202494
0.000218905
0.000239006
0.000263925
0.000295325
0.000335764
0.000389358
0.000463122
0.00056987
0.000735054
0.00101424
0.00154038
0.00275534
0.0067051
0.0260122
0.0324782
0.00797709
0.00336408
0.00208891
0.00147045
0.00105596
0.000781824
0.000598225
0.000471914
0.000382409
0.000317195
0.000268503
0.000231382
0.000202593
0.000179963
0.000161996
0.000147647
0.000136166
0.000127015
0.000119801
0.000114239
0.000110122
0.000107305
0.000105689
0.000105209
0.000105819
0.000107496
0.000110207
0.00011389
0.000118428
0.000123612
0.0001291
0.000134394
0.000138444
0.000140957
0.000142345
0.000143031
0.000143393
0.000143739
0.000144315
0.00014531
0.000146878
0.000149145
0.000152231
0.000156253
0.00016134
0.000167647
0.000175362
0.000184725
0.000196051
0.000209756
0.000226412
0.000246808
0.000272077
0.000303892
0.000344818
0.000398982
0.000473419
0.000580987
0.000747312
0.00102876
0.00156233
0.00279564
0.00680029
0.0263941
0.0331856
0.00813294
0.00343959
0.00214004
0.00150179
0.00107725
0.000797868
0.000611205
0.000482888
0.000391948
0.000325649
0.000276104
0.000238298
0.000208954
0.000185872
0.000167539
0.000152895
0.000141185
0.000131861
0.000124528
0.000118898
0.000114764
0.000111981
0.000110453
0.000110117
0.00011093
0.000112876
0.00011592
0.000119998
0.000124985
0.00013065
0.000136614
0.000142322
0.000146624
0.000149218
0.000150561
0.000151121
0.000151312
0.000151471
0.000151862
0.000152688
0.000154113
0.000156269
0.000159277
0.000163256
0.000168338
0.000174678
0.000182465
0.00019194
0.000203421
0.000217328
0.000234232
0.000254931
0.000280562
0.000312805
0.000354234
0.00040899
0.000484122
0.000592532
0.000759993
0.00104358
0.0015841
0.00283533
0.00689494
0.0267709
0.0339017
0.00829077
0.00351624
0.00219176
0.0015336
0.00109901
0.000814377
0.000624611
0.00049424
0.000401823
0.000334401
0.000283973
0.000245459
0.00021554
0.00019199
0.000173278
0.000158331
0.000146384
0.000136884
0.000129431
0.000123735
0.000119588
0.000116848
0.00011542
0.000115244
0.00011628
0.000118521
0.000121929
0.000126439
0.000131917
0.000138109
0.000144594
0.000150755
0.000155329
0.000158008
0.000159296
0.000159712
0.000159711
0.00015966
0.000159843
0.000160478
0.00016174
0.000163766
0.000166681
0.000170605
0.000175672
0.000182037
0.000189891
0.000199476
0.000211111
0.00022522
0.000242378
0.000263386
0.000289388
0.000322072
0.000364021
0.000419386
0.000495236
0.000604508
0.000773099
0.00105872
0.00160564
0.00287425
0.00698873
0.0271412
0.0346244
0.00845012
0.00359375
0.00224384
0.00156575
0.00112118
0.000831299
0.000638403
0.000505944
0.000412016
0.000343441
0.000292104
0.00025286
0.000222348
0.000198317
0.000179215
0.000163957
0.000151768
0.000142089
0.000134515
0.000128756
0.000124602
0.000121914
0.000120597
0.000120598
0.00012188
0.000124442
0.000128248
0.000133231
0.000139247
0.000146015
0.00015307
0.000159726
0.000164597
0.000167363
0.000168586
0.000168838
0.000168622
0.000168333
0.000168283
0.000168704
0.000169779
0.000171657
0.000174461
0.000178317
0.000183358
0.00018974
0.000197654
0.000207346
0.000219134
0.000233447
0.000250862
0.000272186
0.00029857
0.000331707
0.000374193
0.00043019
0.000506782
0.000616938
0.000786659
0.0010742
0.00162703
0.00291238
0.00708153
0.0275042
0.0353538
0.00861109
0.0036722
0.00229638
0.00159834
0.00114383
0.000848694
0.000652633
0.000518044
0.000422562
0.000352797
0.00030052
0.00026052
0.000229396
0.000204867
0.000185363
0.000169784
0.000157347
0.000147484
0.000139789
0.000133968
0.000129813
0.000127184
0.000125992
0.000126187
0.000127739
0.000130652
0.000134893
0.000140394
0.000146997
0.000154397
0.000162076
0.000169272
0.000174465
0.000177323
0.000178469
0.000178536
0.000178078
0.000177522
0.00017721
0.000177391
0.000178255
0.000179961
0.000182637
0.000186409
0.00019141
0.000197798
0.000205766
0.000215559
0.000227499
0.000242015
0.00025969
0.000281336
0.000308109
0.000341711
0.000384748
0.000441395
0.000518751
0.000629809
0.000800657
0.00109001
0.0016482
0.0029495
0.00717289
0.0278579
0.036089
0.00877343
0.00375147
0.00234932
0.00163135
0.00116695
0.000866552
0.000667294
0.000530532
0.000433459
0.00036247
0.000309225
0.000268446
0.00023669
0.000211646
0.000191727
0.000175818
0.000163125
0.000153076
0.000145259
0.000139379
0.000135227
0.000132668
0.000131614
0.000132021
0.00013387
0.000137165
0.00014188
0.000147946
0.000155192
0.000163283
0.000171647
0.000179434
0.000184977
0.000187931
0.000188988
0.000188848
0.000188116
0.000187261
0.000186654
0.000186565
0.000187193
0.000188703
0.00019123
0.000194899
0.000199847
0.000206231
0.000214243
0.000224131
0.000236219
0.000250938
0.000268875
0.000290847
0.000318016
0.000352095
0.000395697
0.00045301
0.000531148
0.000643126
0.000815094
0.00110614
0.00166916
0.00298548
0.00726243
0.0282009
0.0368289
0.00893693
0.00383142
0.00240256
0.00166471
0.00119051
0.000884862
0.000682382
0.000543413
0.000444713
0.000372468
0.000318227
0.000276645
0.000244236
0.000218663
0.000198316
0.000182068
0.000169113
0.000158874
0.000150934
0.000144996
0.000140854
0.000138373
0.000137473
0.000138112
0.000140283
0.000143995
0.000149227
0.00015591
0.000163859
0.000172706
0.000181819
0.000190254
0.000196177
0.000199231
0.000200184
0.000199813
0.000198772
0.000197584
0.000196648
0.000196256
0.00019662
0.000197907
0.000200262
0.00020381
0.000208688
0.000215054
0.000223101
0.000233078
0.000245309
0.000260229
0.000278429
0.00030073
0.000328303
0.000362867
0.000407047
0.000465042
0.000543981
0.000656892
0.000829973
0.00112261
0.00168989
0.00302019
0.0073498
0.0285312
0.0375739
0.00910176
0.00391217
0.0024562
0.00169853
0.00121459
0.000903687
0.00069795
0.00055673
0.00045636
0.000382821
0.000327551
0.000285139
0.000252056
0.000225935
0.000205146
0.000188546
0.000175322
0.000164887
0.000156822
0.000150828
0.000146701
0.000144309
0.000143577
0.000144469
0.000146991
0.000151157
0.000156952
0.000164307
0.000173024
0.000182699
0.000192633
0.000201776
0.000208114
0.000211274
0.000212107
0.000211476
0.00021009
0.000208529
0.000207226
0.000206495
0.000206563
0.000207598
0.000209755
0.000213161
0.000217952
0.000224286
0.000232357
0.000242414
0.000254784
0.000269903
0.000288367
0.000311001
0.000338982
0.00037404
0.00041881
0.000477503
0.000557259
0.000671118
0.000845305
0.00113941
0.00171041
0.00305354
0.00743472
0.0288477
0.038323
0.00926766
0.0039936
0.0025102
0.00173279
0.00123918
0.000923022
0.000713996
0.000570485
0.000468405
0.000393538
0.000337208
0.000293939
0.000260159
0.000233471
0.000212225
0.000195263
0.00018176
0.000171124
0.000162932
0.000156885
0.000152779
0.000150486
0.000149938
0.000151104
0.000154007
0.000158665
0.000165073
0.00017316
0.000182717
0.000193298
0.000204132
0.00021405
0.000220839
0.00022411
0.000224806
0.000223884
0.000222113
0.000220137
0.000218425
0.000217314
0.000217049
0.000217804
0.000219735
0.000222975
0.00022766
0.000233947
0.00024203
0.000252159
0.000264662
0.000279978
0.000298706
0.000321677
0.000350075
0.000385638
0.000431012
0.000490421
0.000571014
0.000685841
0.000861132
0.00115662
0.00173082
0.00308558
0.00751715
0.0291501
0.0390749
0.0094344
0.00407555
0.00256444
0.00176743
0.00126425
0.000942855
0.00073052
0.000584683
0.000480857
0.000404626
0.000347207
0.000303056
0.000268557
0.000241285
0.000219566
0.00020223
0.00018844
0.000177598
0.000169277
0.000163177
0.000159097
0.000156914
0.000156565
0.000158028
0.000161345
0.000166537
0.00017361
0.000182496
0.000192968
0.000204541
0.00021636
0.000227128
0.000234409
0.000237796
0.000238335
0.000237088
0.000234888
0.00023245
0.000230282
0.000228749
0.000228109
0.00022855
0.000230224
0.000233273
0.000237829
0.000244051
0.000252132
0.000262323
0.000274952
0.000290461
0.000309452
0.000332762
0.000361583
0.00039766
0.000443651
0.00050379
0.00058524
0.000701049
0.000877442
0.00117422
0.00175108
0.00311614
0.00759665
0.0294363
0.0398305
0.00960221
0.00415818
0.00261908
0.00180258
0.00128991
0.000963274
0.00074759
0.000599381
0.000493763
0.000416127
0.000357582