/*--------------------------------*- C++ -*----------------------------------*\
| =========                 |                                                 |
| \\      /  F ield         | OpenFOAM: The Open Source CFD Toolbox           |
|  \\    /   O peration     | Version:  2412                                  |
|   \\  /    A nd           | Website:  www.openfoam.com                      |
|    \\/     M anipulation  |                                                 |
\*---------------------------------------------------------------------------*/
FoamFile
{
    version     2.0;
    format      ascii;
    arch        "LSB;label=32;scalar=64";
    class       volScalarField;
    location    "2000";
    object      f;
}
// * * * * * * * * * * * * * * * * * * * * * * * * * * * * * * * * * * * * * //

dimensions      [0 0 -1 0 0 0 0];

internalField   nonuniform List<scalar> 
32240
(
0.0166034
0.0255001
0.0318758
0.036433
0.0393679
0.0408746
0.0412223
0.0406791
0.039452
0.0377039
0.0355671
0.0331517
0.0305514
0.0278463
0.0251067
0.0223945
0.0197656
0.0172717
0.0149614
0.0128826
0.0110765
0.00950558
0.00813934
0.00695376
0.00593025
0.00505486
0.00431769
0.00371243
0.00323617
0.00288957
0.00267751
0.0026107
0.00270925
0.00298131
0.00337281
0.00386076
0.00443334
0.00508511
0.0058145
0.00662249
0.00751188
0.00848699
0.00955355
0.0107187
0.0119911
0.0133809
0.0149
0.0165621
0.018382
0.0203226
0.0223402
0.0243915
0.0264323
0.0284157
0.0302902
0.0319963
0.0334618
0.0345934
0.0352635
0.0352869
0.0343873
0.0322327
0.0285411
0.0230921
0.0152552
0.0171002
0.0262037
0.0326932
0.0372863
0.0401916
0.0416221
0.0418698
0.0412172
0.0398808
0.0380295
0.0357994
0.0333029
0.0306341
0.0278739
0.0250923
0.0223516
0.0197079
0.0172138
0.0149193
0.0128747
0.0110936
0.00954043
0.00818629
0.00700855
0.00598977
0.00511697
0.00438101
0.00377621
0.00330018
0.00295398
0.00274279
0.00267761
0.00277879
0.00305442
0.00344996
0.00394224
0.00451924
0.0051753
0.00590852
0.00671948
0.00761055
0.0085855
0.00964948
0.0108089
0.0120718
0.0134475
0.0149471
0.0165832
0.0183702
0.0202905
0.0222988
0.0243507
0.0264012
0.0284033
0.0303054
0.0320484
0.0335607
0.0347495
0.0354868
0.0355852
0.0347604
0.0326577
0.0289692
0.0234614
0.0155093
0.0172887
0.0264855
0.03303
0.0376404
0.0405302
0.041922
0.0421207
0.0414161
0.0400296
0.0381328
0.0358632
0.0333336
0.0306383
0.0278578
0.0250621
0.0223131
0.0196672
0.0171771
0.0148935
0.0128676
0.0111013
0.00955964
0.00821451
0.00704382
0.00603058
0.00516221
0.00442989
0.00382822
0.00335501
0.00301149
0.00280295
0.00274043
0.0028442
0.00312196
0.00351887
0.0040117
0.00458842
0.00524326
0.00597427
0.00678191
0.00766844
0.00863753
0.00969418
0.0108447
0.0120969
0.01346
0.0149448
0.0165639
0.0183314
0.0202382
0.0222385
0.0242875
0.0263401
0.0283495
0.0302644
0.0320264
0.0335647
0.0347876
0.0355682
0.0357194
0.034954
0.0329052
0.029246
0.0237284
0.0157204
0.0176447
0.0269998
0.0336352
0.0382772
0.0411483
0.042486
0.0426129
0.0418295
0.0403638
0.0383919
0.0360537
0.0334634
0.0307161
0.0278927
0.0250634
0.0222905
0.0196312
0.0171389
0.0148658
0.012865
0.0111176
0.00958995
0.00825513
0.00709201
0.00608439
0.0052203
0.00449142
0.00389272
0.00342229
0.00308155
0.0028759
0.00281644
0.00292344
0.00320423
0.00360365
0.00409855
0.00467686
0.00533277
0.00606423
0.00687156
0.00775677
0.00872328
0.00977572
0.01092
0.0121634
0.0135147
0.014984
0.0165834
0.0183262
0.0202189
0.0222141
0.0242658
0.0263284
0.0283544
0.0302926
0.0320845
0.0336598
0.0349271
0.0357597
0.0359696
0.0352653
0.0332627
0.0296121
0.0240505
0.0159483
0.0179134
0.027383
0.0340793
0.038735
0.0415804
0.0428669
0.042932
0.0420851
0.040559
0.0385325
0.0361469
0.0335167
0.0307369
0.0278882
0.0250405
0.0222562
0.0195924
0.0171031
0.0148412
0.0128611
0.0111299
0.00961492
0.00829
0.00713463
0.00613316
0.00527406
0.00454938
0.00395438
0.00348739
0.00314997
0.00294762
0.00289144
0.00300161
0.00328498
0.00368612
0.00418189
0.00476024
0.00541532
0.00614499
0.00694947
0.00783064
0.00879172
0.00983717
0.0109727
0.0122053
0.0135434
0.014997
0.0165777
0.0182987
0.0201744
0.0221586
0.0242051
0.026268
0.0282998
0.0302496
0.0320596
0.0336601
0.034961
0.0358367
0.0360997
0.0354559
0.0335085
0.0298865
0.0243111
0.0161496
0.0182562
0.0278834
0.0346708
0.0393566
0.0421809
0.0434114
0.0434048
0.0424806
0.0408784
0.0387806
0.0363308
0.0336445
0.0308174
0.0279302
0.0250535
0.0222502
0.019578
0.0170922
0.0148472
0.0128854
0.0111677
0.00966263
0.00834478
0.00719448
0.00619669
0.00534038
0.00461799
0.0040251
0.00356023
0.00322511
0.0030253
0.0029719
0.00308506
0.00337121
0.00377467
0.00427232
0.00485214
0.00550829
0.00623858
0.00704312
0.00792363
0.00888314
0.00992586
0.0110572
0.0122838
0.0136137
0.0150565
0.0166233
0.0183269
0.0201812
0.0221545
0.024199
0.0262677
0.0283127
0.0302827
0.03212
0.0337553
0.0350991
0.0360268
0.0363508
0.0357737
0.0338819
0.0302781
0.0246634
0.0164052
0.0185519
0.0283048
0.0351587
0.0398589
0.042655
0.0438303
0.0437582
0.0427674
0.0411024
0.0389484
0.03645
0.033723
0.0308631
0.027951
0.0250571
0.0222446
0.0195718
0.0170949
0.0148699
0.0129232
0.0112167
0.00971958
0.00840744
0.00726114
0.00626618
0.00541197
0.00469131
0.00410004
0.00363692
0.00330378
0.00310626
0.00305546
0.0031714
0.00346013
0.00386559
0.00436469
0.00494539
0.00560179
0.00633164
0.00713492
0.00801319
0.00896928
0.0100072
0.0111319
0.01235
0.0136691
0.0150984
0.0166487
0.0183323
0.020163
0.0221204
0.0241558
0.0262216
0.0282698
0.0302491
0.0321024
0.033761
0.0351366
0.0361057
0.0364816
0.0359652
0.0341305
0.0305572
0.0249282
0.0166086
0.0189046
0.028818
0.0357625
0.0404887
0.0432579
0.0443722
0.0442251
0.043156
0.0414152
0.0391912
0.0366303
0.0338492
0.030944
0.0279956
0.025075
0.0222457
0.019567
0.0170963
0.0148915
0.01296
0.0112647
0.00977591
0.00846974
0.00732775
0.00633597
0.00548421
0.00476563
0.00417632
0.00371522
0.00338431
0.00318926
0.00314113
0.00325989
0.0035511
0.00395844
0.00445883
0.00504026
0.00569684
0.00642622
0.00722831
0.00810454
0.00905756
0.0100911
0.0112101
0.0124206
0.01373
0.0151471
0.0166824
0.0183479
0.0201569
0.0221024
0.0241345
0.0262048
0.0282646
0.0302624
0.0321411
0.0338327
0.0352495
0.0362693
0.0367063
0.0362596
0.034488
0.0309428
0.0252821
0.0168703
0.0192244
0.0292749
0.0362918
0.0410328
0.0437704
0.0448247
0.0446077
0.043468
0.0416612
0.0393782
0.0367661
0.033942
0.0310017
0.0280263
0.0250865
0.0222464
0.019566
0.0171037
0.0149191
0.0130027
0.0113185
0.0098376
0.00853701
0.00739892
0.00640992
0.00556026
0.00484346
0.00425588
0.00379667
0.00346791
0.00327533
0.00322996
0.00335162
0.00364545
0.00405478
0.00455657
0.00513882
0.00579561
0.00652455
0.00732543
0.0081995
0.00914922
0.0101781
0.0112907
0.0124929
0.0137915
0.0151952
0.0167138
0.0183589
0.0201435
0.0220729
0.0240959
0.0261635
0.0282268
0.0302344
0.0321295
0.0338447
0.0352938
0.0363559
0.0368467
0.0364642
0.034755
0.0312447
0.0255689
0.0170899
0.019588
0.0298015
0.0369077
0.0416701
0.0443747
0.0453631
0.0450682
0.043849
0.0419664
0.0396142
0.0369407
0.0340636
0.031079
0.028068
0.025102
0.0222454
0.0195592
0.0171029
0.0149381
0.0130369
0.0113644
0.00989227
0.00859833
0.00746532
0.0064803
0.0056339
0.00491995
0.00433506
0.00387856
0.00355264
0.00336306
0.00332082
0.00344564
0.00374216
0.00415343
0.00465648
0.00523934
0.00589611
0.00662434
0.00742373
0.00829542
0.00924171
0.0102659
0.0113724
0.0125667
0.0138555
0.0152469
0.0167507
0.018378
0.0201415
0.0220549
0.0240707
0.0261388
0.0282098
0.030232
0.0321487
0.0338931
0.0353798
0.0364894
0.037039
0.0367265
0.0350852
0.0316113
0.0259119
0.0173478
0.0199327
0.030295
0.0374795
0.0422565
0.0449254
0.0458489
0.0454798
0.0441867
0.0422354
0.0398218
0.0370951
0.034173
0.0311516
0.0281121
0.0251259
0.0222582
0.0195706
0.0171241
0.014978
0.0130907
0.0114281
0.00996299
0.0086739
0.00754424
0.00656155
0.00571692
0.00500451
0.00442121
0.00396653
0.00364277
0.00345574
0.00341638
0.00354429
0.00384365
0.00425721
0.00476206
0.00534627
0.00600394
0.0067326
0.00753185
0.00840271
0.00934728
0.0103687
0.0114709
0.0126593
0.0139402
0.0153213
0.016812
0.018423
0.0201667
0.0220566
0.0240577
0.026119
0.0281902
0.0302195
0.0321504
0.0339167
0.0354341
0.0365848
0.0371878
0.0369413
0.0353672
0.0319335
0.0262196
0.0175836
0.0203086
0.0308376
0.0381114
0.0429063
0.0455377
0.0463919
0.0459436
0.0445715
0.0425463
0.0400661
0.0372812
0.0343096
0.0312478
0.0281774
0.0251703
0.0222924
0.019607
0.0171767
0.0150426
0.0131639
0.0115073
0.0100462
0.00875966
0.0076316
0.00664993
0.00580609
0.00509449
0.00451221
0.00405892
0.00373699
0.00355222
0.00351547
0.00364619
0.00394808
0.00436353
0.00486968
0.00545464
0.0061125
0.00684077
0.00763896
0.00850797
0.00944975
0.0104672
0.0115643
0.0127458
0.0140181
0.0153884
0.0168658
0.0184608
0.0201853
0.0220527
0.0240408
0.0260973
0.0281712
0.0302104
0.0321584
0.0339493
0.0355
0.0366943
0.0373534
0.0371763
0.0356738
0.0322841
0.0265539
0.0178388
0.0206765
0.031365
0.038722
0.0435305
0.0461222
0.0469072
0.0463816
0.0449337
0.0428386
0.0402964
0.037458
0.0344417
0.0313437
0.028246
0.025221
0.0223356
0.019654
0.0172412
0.0151196
0.0132494
0.0115983
0.0101404
0.0088555
0.00772802
0.00674638
0.00590237
0.00519073
0.00460876
0.00415627
0.00383572
0.00365288
0.00361853
0.00375193
0.00405625
0.00447357
0.00498103
0.00556681
0.00622499
0.00695305
0.00775041
0.00861785
0.00955715
0.010571
0.011663
0.0128379
0.0141014
0.0154607
0.0169242
0.0185023
0.0202063
0.0220495
0.0240224
0.0260716
0.0281454
0.0301915
0.0321533
0.0339656
0.0355464
0.0367813
0.0374939
0.0373846
0.0359546
0.032613
0.0268722
0.0180848
0.0210659
0.0319253
0.0393713
0.0441937
0.0467425
0.0474542
0.0468473
0.0453196
0.0431506
0.0405423
0.0376464
0.0345811
0.0314432
0.0283147
0.0252689
0.0223735
0.0196941
0.0172975
0.015188
0.0133265
0.0116815
0.0102278
0.00894562
0.00781994
0.00683954
0.00599654
0.00528592
0.00470522
0.00425435
0.00393585
0.00375548
0.00372389
0.00386015
0.00416689
0.00458587
0.00509429
0.00568039
0.00633828
0.00706539
0.00786109
0.00872605
0.00966188
0.0106711
0.0117571
0.0129244
0.0141784
0.0155259
0.0169753
0.0185362
0.0202199
0.0220391
0.0239974
0.0260401
0.0281148
0.0301685
0.0321451
0.0339797
0.0355913
0.0368675
0.0376343
0.0375944
0.0362403
0.0329509
0.0272011
0.0183398
0.0214551
0.032483
0.0400154
0.0448489
0.0473528
0.0479904
0.0473028
0.0456968
0.0434561
0.0407841
0.0378329
0.034721
0.0315451
0.0283876
0.0253223
0.0224179
0.0197414
0.0173616
0.0152642
0.0134112
0.0117719
0.0103217
0.00904158
0.00791703
0.00693727
0.00609477
0.00538481
0.0048051
0.00435572
0.00403923
0.00386138
0.00383268
0.00397197
0.00428132
0.00470215
0.00521177
0.00579847
0.0064564
0.00718298
0.00797751
0.00884053
0.00977351
0.0107788
0.0118594
0.0130197
0.0142649
0.0156013
0.0170368
0.0185809
0.0202445
0.0220399
0.0239803
0.0260134
0.0280858
0.0301445
0.032133
0.0339872
0.0356269
0.0369418
0.0377607
0.0377889
0.0365117
0.0332781
0.0275234
0.0185919
0.0218594
0.0330631
0.040685
0.0455288
0.0479847
0.0485452
0.0477742
0.0460877
0.0437731
0.0410351
0.0380264
0.0348655
0.0316493
0.0284608
0.0253743
0.0224594
0.0197846
0.017421
0.0153355
0.0134912
0.0118579
0.010412
0.00913479
0.00801227
0.00703404
0.00619288
0.00548433
0.0049063
0.00445899
0.00414503
0.00397011
0.00394464
0.00408721
0.00439934
0.00482216
0.00533308
0.0059205
0.00657865
0.00730494
0.00809865
0.0089602
0.00989093
0.010893
0.0119694
0.013124
0.0143617
0.0156889
0.0171129
0.0186429
0.0202894
0.0220647
0.0239815
0.0260005
0.0280672
0.0301277
0.0321256
0.0339969
0.0356627
0.0370143
0.0378835
0.0379791
0.03678
0.0336058
0.0278488
0.0188476
0.0222679
0.0336484
0.0413593
0.0462116
0.048618
0.049101
0.0482473
0.0464817
0.044095
0.0412931
0.038229
0.0350214
0.0317675
0.0285505
0.0254456
0.0225237
0.0198551
0.0175048
0.0154287
0.0135906
0.0119611
0.0105173
0.00924107
0.00811879
0.0071405
0.00629932
0.00559104
0.00501376
0.0045678
0.00425581
0.00408344
0.00406092
0.00420659
0.00452136
0.00494604
0.00545815
0.00604619
0.00670447
0.00743039
0.00822319
0.00908318
0.0100116
0.0110103
0.0120822
0.0132309
0.014461
0.0157785
0.0171905
0.0187057
0.0203345
0.0220886
0.0239808
0.0259845
0.0280441
0.0301051
0.0321108
0.0339977
0.0356879
0.0370745
0.0379925
0.0381545
0.0370348
0.033924
0.0281688
0.0191014
0.0226872
0.0342497
0.0420518
0.0469116
0.0492667
0.0496707
0.048734
0.0468893
0.0444306
0.0415653
0.0384464
0.035193
0.0319025
0.0286591
0.0255388
0.022614
0.0199572
0.0176149
0.0155438
0.0137083
0.0120797
0.0106356
0.00935827
0.00823461
0.00725496
0.0064127
0.00570384
0.00512665
0.00468153
0.00437114
0.00420102
0.00418119
0.00432971
0.00464682
0.00507301
0.0055859
0.0061741
0.00683197
0.00755695
0.00834821
0.00920599
0.0101314
0.0111261
0.0121928
0.0133349
0.0145567
0.015864
0.0172634
0.0187635
0.0203741
0.0221067
0.0239738
0.0259618
0.0280137
0.0300746
0.0320874
0.0339891
0.0357025
0.0371229
0.0380885
0.0383163
0.0372773
0.0342342
0.0284852
0.0193548
0.0231118
0.0348581
0.0427511
0.0476169
0.0499188
0.0502432
0.0492234
0.0473001
0.0447702
0.0418419
0.0386687
0.0353698
0.0320431
0.0287733
0.0256376
0.0227101
0.0200653
0.0177311
0.0156648
0.0138317
0.0122038
0.010759
0.0094804
0.00835508
0.00737378
0.00653021
0.00582058
0.00524334
0.00479897
0.00449013
0.00432226
0.00430513
0.00445644
0.00477575
0.00520325
0.00571666
0.0063047
0.00696181
0.00768545
0.00847477
0.00932993
0.0102518
0.0112422
0.0123032
0.0134382
0.0146513
0.0159478
0.0173343
0.0188187
0.0204106
0.0221211
0.0239625
0.0259339
0.0279774
0.0300372
0.032056
0.0339711
0.0357064
0.037159
0.0381705
0.0384628
0.0375052
0.0345334
0.028795
0.0196053
0.0235436
0.0354768
0.0434616
0.0483318
0.0505787
0.0508223
0.0497189
0.0477167
0.0451152
0.0421235
0.0388952
0.0355498
0.0321857
0.0288885
0.0257366
0.0228054
0.020172
0.0178454
0.0157839
0.0139533
0.0123262
0.0108812
0.0096016
0.00847508
0.00749265
0.00664827
0.00593838
0.00536158
0.00491844
0.00461159
0.00444635
0.00443224
0.00458657
0.00490819
0.00533696
0.00585074
0.0064384
0.00709447
0.00781645
0.00860343
0.00945551
0.0103735
0.0113588
0.0124137
0.013541
0.0147447
0.0160299
0.0174027
0.0188708
0.0204434
0.0221313
0.0239465
0.0259008
0.0279352
0.029993
0.0320169
0.0339443
0.0357
0.037183
0.0382384
0.0385935
0.0377171
0.0348198
0.0290963
0.0198514
0.0239802
0.0361025
0.0441794
0.0490529
0.0512434
0.0514059
0.0502193
0.0481386
0.0454658
0.0424106
0.039127
0.0357348
0.0323329
0.0290078
0.025839
0.0229038
0.0202814
0.0179622
0.0159052
0.0140768
0.0124504
0.011005
0.00972447
0.00859674
0.00761322
0.00676814
0.00605817
0.00548206
0.00504043
0.00473591
0.00457365
0.00456292
0.00472063
0.00504485
0.00547517
0.00598963
0.00657728
0.00723278
0.00795368
0.00873909
0.00958902
0.0105042
0.0114859
0.0125361
0.0136575
0.014854
0.0161301
0.0174918
0.0189466
0.0205033
0.0221724
0.0239656
0.0258954
0.0279146
0.0299655
0.03199
0.0339256
0.0356978
0.0372073
0.0383024
0.0387158
0.0379182
0.0350975
0.0293934
0.020097
0.0244248
0.0367393
0.0449086
0.0497836
0.0519166
0.0519979
0.0507283
0.0485691
0.0458247
0.0427053
0.0393654
0.0359252
0.0324844
0.0291302
0.0259436
0.0230035
0.0203914
0.0180793
0.0160265
0.0142004
0.0125748
0.0111292
0.00984786
0.00871924
0.00773496
0.00688955
0.00617988
0.00560482
0.0051651
0.00486328
0.00470436
0.00469733
0.00485868
0.00518568
0.00561764
0.00613283
0.0067205
0.00737546
0.00809534
0.00887925
0.00972714
0.0106396
0.0116178
0.0126636
0.0137794
0.0149688
0.0162362
0.0175873
0.0190292
0.0205705
0.0222213
0.0239933
0.0258989
0.0279033
0.0299477
0.0319737
0.0339183
0.0357078
0.0372441
0.0383784
0.0388484
0.0381291
0.0353873
0.0297096
0.0203615
0.0248883
0.0374
0.0456614
0.0505356
0.0526096
0.0526098
0.0512571
0.049019
0.0462018
0.043017
0.0396194
0.0361299
0.0326488
0.0292644
0.0260589
0.023113
0.0205107
0.0182049
0.0161559
0.0143315
0.0127062
0.0112599
0.00997749
0.00884757
0.00786218
0.00701611
0.00630646
0.00573226
0.00529428
0.00499507
0.00483946
0.00483609
0.00500102
0.00533067
0.00576408
0.00627973
0.00686711
0.00752119
0.00823967
0.00902167
0.0098671
0.0107764
0.0117507
0.0127915
0.0139012
0.015083
0.0163412
0.0176811
0.0191095
0.0206347
0.0222665
0.0240164
0.0258966
0.027885
0.0299218
0.0319478
0.0339
0.0357053
0.037267
0.0384393
0.0389651
0.0383251
0.0356665
0.030021
0.0206256
0.0253823
0.0381022
0.0464576
0.0513307
0.0533438
0.0532633
0.0518271
0.0495094
0.0466191
0.0433688
0.0399141
0.0363767
0.0328577
0.0294469
0.0262283
0.0232849
0.0206833
0.0183762
0.0163242
0.0144956
0.0128654
0.011414
0.0101265
0.00899199
0.00800271
0.0071537
0.00644223
0.00586743
0.00543012
0.00513272
0.00497984
0.00497973
0.0051479
0.00547986
0.00591433
0.00643001
0.0070166
0.00766924
0.00838573
0.00916518
0.0100075
0.010913
0.0118826
0.0129177
0.0140205
0.015194
0.0164421
0.01777
0.0191841
0.0206924
0.0223044
0.0240313
0.0258852
0.0278567
0.0298848
0.0319097
0.0338683
0.035688
0.0372736
0.0384823
0.0390623
0.0385012
0.035929
0.030322
0.0208854
0.0258812
0.0388105
0.0472589
0.0521287
0.054079
0.0539171
0.0523977
0.0500011
0.0470386
0.0437237
0.0402127
0.036628
0.0330719
0.0296354
0.0264043
0.0234643
0.0208633
0.0185546
0.0164992
0.0146661
0.0130308
0.0115739
0.0102811
0.00914166
0.00814821
0.00729601
0.00658251
0.00600698
0.00557024
0.00527463
0.00512449
0.00512764
0.005299
0.00563313
0.00606842
0.00658381
0.00716922
0.00781998
0.00853399
0.00931038
0.010149
0.0110501
0.0120144
0.0130432
0.0141385
0.015303
0.0165404
0.0178555
0.0192546
0.0207453
0.0223367
0.0240398
0.0258664
0.02782
0.0298383
0.0318609
0.0338248
0.0356575
0.0372656
0.0385091
0.039142
0.0386595
0.036177
0.0306146
0.0211421
0.0263878
0.039529
0.0480699
0.0529345
0.0548206
0.0545765
0.0529736
0.0504979
0.0474629
0.0440829
0.0405151
0.0368826
0.0332887
0.0298259
0.0265818
0.0236447
0.0210441
0.0187335
0.0166747
0.0148372
0.0131966
0.0117344
0.0104364
0.00929231
0.00829494
0.00743983
0.00672464
0.00614872
0.00571294
0.00541951
0.00527249
0.00527926
0.00545408
0.0057905
0.00622662
0.00674163
0.00732575
0.00797449
0.00868588
0.00945909
0.0102939
0.0111905
0.0121496
0.0131721
0.0142599
0.0154155
0.0166423
0.0179449
0.0193293
0.0208026
0.0223739
0.0240537
0.0258536
0.0277857
0.0297911
0.0318085
0.0337747
0.0356179
0.0372459
0.0385217
0.0392049
0.0387997
0.0364093
0.0308975
0.0213949
0.0269014
0.0402567
0.0488898
0.0537473
0.0555676
0.055241
0.0535545
0.0509997
0.047892
0.0444469
0.0408219
0.0371411
0.0335089
0.0300193
0.0267619
0.0238274
0.0212268
0.0189139
0.0168514
0.0150091
0.0133633
0.0118956
0.0105924
0.00944363
0.00844246
0.00758465
0.00686804
0.00629211
0.0058577
0.00556692
0.00542351
0.00543435
0.00561301
0.00595196
0.00638902
0.0069037
0.00748655
0.00813333
0.00884221
0.00961244
0.0104438
0.0113363
0.0122906
0.0133075
0.0143886
0.0155362
0.0167536
0.018045
0.019416
0.0208736
0.0224266
0.024085
0.0258604
0.0277649
0.029752
0.0317596
0.0337241
0.035574
0.0372182
0.0385228
0.0392532
0.038923
0.0366263
0.0311706
0.0216432
0.0274212
0.0409926
0.0497172
0.0545656
0.056319
0.0559094
0.0541394
0.0515056
0.0483252
0.0448146
0.0411321
0.0374026
0.0337316
0.0302146
0.0269433
0.024011
0.0214098
0.0190945
0.017028
0.0151808
0.0135296
0.0120565
0.0107481
0.00959486
0.00859013
0.00772992
0.00701227
0.00643675
0.00600422
0.00571661
0.00557733
0.00559271
0.00577557
0.00611719
0.00655513
0.00706929
0.00765057
0.00829501
0.00900096
0.00976772
0.0105951
0.011483
0.0124319
0.0134426
0.0145163
0.0156553
0.0168624
0.0181417
0.0194986
0.0209397
0.0224733
0.0241094
0.0258592
0.0277347
0.0297021
0.0316984
0.0336595
0.0355142
0.0371727
0.038504
0.0392793
0.0390228
0.0368219
0.0314291
0.0218844
0.0279474
0.041737
0.0505525
0.05539
0.0570753
0.0565826
0.0547291
0.0520164
0.0487634
0.0451871
0.0414468
0.0376681
0.0339578
0.030413
0.0271271
0.0241965
0.0215944
0.0192762
0.0172054
0.015353
0.0136963
0.0122177
0.0109042
0.0097465
0.00873835
0.007876
0.00715762
0.00658291
0.0061527
0.00586875
0.00573408
0.00575441
0.00594175
0.00628608
0.00672474
0.00723804
0.00781728
0.00845881
0.00916119
0.0099238
0.0107464
0.011629
0.0125718
0.0135754
0.014641
0.0157704
0.0169665
0.018233
0.0195749
0.0209986
0.0225121
0.0241249
0.0258482
0.0276937
0.0296403
0.0316239
0.0335801
0.035438
0.0371091
0.0384651
0.0392835
0.0390992
0.0369963
0.0316732
0.0221186
0.0284793
0.042489
0.0513948
0.0562198
0.0578362
0.0572604
0.0553238
0.0525325
0.0492069
0.0455651
0.0417667
0.0379386
0.0341886
0.0306154
0.0273147
0.0243853
0.0217819
0.0194605
0.0173852
0.0155275
0.013865
0.0123808
0.0110621
0.00989996
0.00888845
0.00802404
0.00730511
0.00673146
0.00630388
0.00602393
0.00589424
0.00591985
0.00611186
0.00645888
0.00689802
0.00741005
0.00798673
0.00862475
0.00932288
0.0100806
0.0108977
0.0117741
0.01271
0.0137057
0.0147623
0.0158815
0.0170657
0.0183185
0.0196446
0.02105
0.0225425
0.0241312
0.0258269
0.0276413
0.0295659
0.0315355
0.0334855
0.035345
0.037027
0.0384059
0.0392652
0.0391516
0.0371485
0.0319021
0.0223453
0.0290168
0.043249
0.0522454
0.0570573
0.0586051
0.0579476
0.0559297
0.0530616
0.0496656
0.0459602
0.0421062
0.0382314
0.0344454
0.0308484
0.0275387
0.0246054
0.0219963
0.0196678
0.0175845
0.0157184
0.0140476
0.0125554
0.0112296
0.0100614
0.00904515
0.00817767
0.00745744
0.00688437
0.00645918
0.0061832
0.00605857
0.0060896
0.00628638
0.00663604
0.00707543
0.00758583
0.00815947
0.00879342
0.00948667
0.0102389
0.0110498
0.0119193
0.0128474
0.0138345
0.0148813
0.0159893
0.0171608
0.018399
0.0197084
0.0210946
0.0225651
0.0241288
0.0257959
0.0275781
0.0294793
0.0314335
0.0333756
0.035235
0.0369259
0.0383256
0.0392236
0.0391788
0.0372769
0.0321142
0.0225633
0.029558
0.0440143
0.0531008
0.0578987
0.0593783
0.0586404
0.0565429
0.0535999
0.0501351
0.0463679
0.0424602
0.0385408
0.034721
0.0311033
0.0277884
0.024848
0.0222301
0.0198917
0.017798
0.0159214
0.0142404
0.0127386
0.0114042
0.0102288
0.00920698
0.00833573
0.00761375
0.00704102
0.00661819
0.0063463
0.00622698
0.00626371
0.0064655
0.00681787
0.00725744
0.00776602
0.00833637
0.00896598
0.0096541
0.0104005
0.011205
0.0120675
0.0129878
0.0139662
0.0150033
0.0161003
0.0172592
0.0184831
0.0197761
0.0211437
0.0225927
0.0241319
0.0257713
0.0275221
0.0293953
0.0313299
0.0332602
0.0351159
0.0368122
0.0382291
0.0391622
0.0391831
0.0373826
0.0323097
0.0227725
0.0301029
0.0447844
0.0539601
0.0587428
0.0601539
0.0593363
0.0571599
0.0541427
0.0506095
0.0467808
0.0428192
0.0388552
0.0350013
0.0313623
0.0280418
0.0250937
0.0224665
0.0201179
0.0180134
0.0161259
0.0144344
0.0129229
0.0115799
0.0103972
0.0093698
0.00849493
0.00777147
0.00719945
0.00677944
0.0065122
0.00639877
0.00644176
0.006649
0.00700431
0.00744406
0.0079507
0.00851755
0.00914258
0.00982534
0.0105658
0.0113638
0.0122192
0.0131318
0.0141017
0.0151292
0.0162155
0.0173624
0.0185725
0.0198498
0.0211994
0.022628
0.0241438
0.0257565
0.0274772
0.0293169
0.031227
0.033141
0.0349887
0.0366862
0.0381164
0.0390806
0.0391635
0.0374639
0.0324866
0.0229712
0.0306507
0.0455585
0.0548225
0.0595886
0.0609313
0.0600346
0.0577802
0.0546894
0.0510882
0.047198
0.0431826
0.0391734
0.0352851
0.0316242
0.0282975
0.025341
0.022704
0.0203445
0.0182288
0.0163301
0.0146279
0.0131064
0.0117547
0.0105648
0.00953203
0.00865386
0.00792935
0.0073586
0.00694208
0.00668021
0.00657342
0.00662336
0.00683657
0.00719502
0.00763488
0.00813926
0.00870217
0.00932204
0.0099988
0.0107326
0.0115234
0.0123709
0.0132749
0.0142354
0.0152526
0.0163272
0.0174611
0.0186565
0.0199171
0.0212478
0.0226548
0.0241461
0.025731
0.0274204
0.0292252
0.031109
0.0330049
0.0348427
0.0365394
0.0379804
0.0389731
0.0391154
0.0375168
0.0326421
0.0231579
0.0312006
0.046335
0.0556861
0.0604345
0.0617088
0.060734
0.0584027
0.0552392
0.0515707
0.0476195
0.0435501
0.0394957
0.0355724
0.0318891
0.0285554
0.0255898
0.0229422
0.0205713
0.0184438
0.0165335
0.0148202
0.0132886
0.011928
0.010731
0.00969306
0.00881192
0.00808684
0.00751797
0.00710568
0.00685
0.00675068
0.00680832
0.00702806
0.00738985
0.00782967
0.00833141
0.00888976
0.00950377
0.0101737
0.0108999
0.0116825
0.0125212
0.0134158
0.0143658
0.0153716
0.0164337
0.0175535
0.0187332
0.0199761
0.0212869
0.0226714
0.0241372
0.0256933
0.0273502
0.0291187
0.0309748
0.032851
0.0346769
0.0363706
0.03782
0.0388385
0.0390375
0.0375398
0.0327745
0.0233313
0.031753
0.0471148
0.056552
0.0612814
0.0624875
0.0614355
0.0590284
0.055793
0.0520577
0.0480456
0.0439223
0.0398222
0.0358634
0.032157
0.0288154
0.0258399
0.023181
0.020798
0.0186582
0.0167357
0.015011
0.0134691
0.0120996
0.0108955
0.00985253
0.00896878
0.00824364
0.00767732
0.00727005
0.00702145
0.0069305
0.00699667
0.00722355
0.00758891
0.00802854
0.00852719
0.00908038
0.00968773
0.01035
0.0110677
0.0118411
0.01267
0.0135539
0.0144926
0.0154859
0.0165344
0.0176391
0.018802
0.0200263
0.0213161
0.022677
0.0241162
0.0256425
0.0272658
0.0289969
0.0308239
0.0326786
0.0344907
0.0361793
0.0376347
0.0386763
0.038929
0.0375316
0.0328823
0.0234903
0.032307
0.0478969
0.0574191
0.0621286
0.0632668
0.0621388
0.0596569
0.0563506
0.0525491
0.0484763
0.044299
0.0401531
0.0361582
0.032428
0.0290777
0.0260915
0.0234205
0.0210247
0.0188719
0.0169368
0.0152002
0.0136477
0.0122692
0.011058
0.0100103
0.00912433
0.00839968
0.00783663
0.00743523
0.00719465
0.00711306
0.00718865
0.00742335
0.00779254
0.00823189
0.00872707
0.00927448
0.00987444
0.0105281
0.0112365
0.0119997
0.0128178
0.0136901
0.0146163
0.0155961
0.0166298
0.0177183
0.0188634
0.0200679
0.0213356
0.0226719
0.0240835
0.0255788
0.0271675
0.0288599
0.0306563
0.0324877
0.0342841
0.0359654
0.0374245
0.0384864
0.03879
0.0374921
0.0329651
0.0236346
0.0328618
0.0486796
0.0582856
0.0629742
0.0640452
0.0628425
0.0602874
0.0569113
0.0530445
0.0489115
0.0446805
0.0404885
0.0364572
0.0327025
0.0293427
0.0263448
0.0236609
0.0212515
0.0190851
0.0171369
0.0153881
0.0138247
0.0124371
0.0112189
0.0101666
0.00927879
0.00855519
0.00799613
0.00760149
0.00736993
0.0072987
0.00738466
0.00762792
0.0080013
0.00844033
0.00893175
0.00947292
0.0100649
0.0107095
0.0114077
0.0121602
0.0129668
0.0138269
0.01474
0.0157057
0.0167242
0.0177961
0.0189229
0.0201072
0.0213525
0.0226639
0.0240476
0.0255117
0.0270655
0.0287191
0.0304812
0.0322859
0.0340631
0.0357336
0.0371927
0.0382712
0.0386217
0.0374213
0.0330221
0.0237631
0.0334179
0.0494643
0.059153
0.06382
0.0648244
0.0635485
0.0609215
0.057477
0.0535457
0.0493532
0.0450685
0.0408304
0.0367623
0.0329825
0.0296123
0.026602
0.0239043
0.0214806
0.0192999
0.017338
0.0155765
0.0140019
0.0126049
0.0113796
0.0103228
0.00943327
0.00871111
0.00815664
0.00776951
0.00754786
0.00748797
0.0075852
0.00783775
0.00821564
0.00865433
0.00914172
0.00967625
0.0102598
0.0108947
0.0115825
0.0123238
0.0131186
0.0139664
0.0148664
0.0158182
0.0168216
0.0178772
0.0189863
0.020151
0.0213748
0.0226621
0.0240191
0.0254533
0.0269736
0.02859
0.0303111
0.032083
0.0338354
0.0354898
0.0369438
0.0380336
0.0384257
0.0373194
0.0330523
0.0238744
0.0339744
0.0502503
0.0600217
0.0646675
0.0656075
0.0642615
0.0615659
0.058056
0.0540634
0.0498146
0.0454799
0.0411996
0.0370995
0.0333004
0.0299144
0.0268867
0.024171
0.021729
0.0195306
0.0175519
0.015775
0.0141868
0.0127785
0.0115446
0.0104821
0.00959029
0.00886928
0.00831946
0.00794024
0.00772916
0.00768139
0.0077907
0.00805314
0.00843577
0.00887393
0.00935682
0.009884
0.0104583
0.0110826
0.0117589
0.0124881
0.0132701
0.0141043
0.0149901
0.0159268
0.0169141
0.0179523
0.0190424
0.0201864
0.0213874
0.0226495
0.0239784
0.0253814
0.0268671
0.0284448
0.0301233
0.0318604
0.0335858
0.0352215
0.0366675
0.0377654
0.0381955
0.0371809
0.0330511
0.0239655
0.0345293
0.0510343
0.0608872
0.0655119
0.0663894
0.064976
0.0622148
0.0586424
0.0545912
0.0502884
0.0459058
0.0415856
0.0374558
0.0336402
0.0302354
0.0271876
0.0244511
0.0219886
0.0197703
0.0177728
0.0159789
0.0143758
0.0129551
0.0117117
0.010643
0.00974857
0.00902875
0.00848394
0.00811327
0.0079136
0.00787891
0.00800121
0.00827422
0.00866177
0.00909914
0.0095769
0.0100959
0.0106599
0.0112725
0.0119361
0.0126518
0.0134197
0.0142392
0.0151094
0.0160297
0.0169996
0.0180191
0.019089
0.020211
0.0213879
0.0226235
0.0239233
0.025294
0.0267437
0.0282815
0.0299161
0.0316168
0.033313
0.0349279
0.0363633
0.0374663
0.0379308
0.0370055
0.0330181
0.0240362
0.0350836
0.0518175
0.0617508
0.0663538
0.06717
0.065691
0.062866
0.0592327
0.0551239
0.0507679
0.0463378
0.0419777
0.0378178
0.0339849
0.0305605
0.0274917
0.0247336
0.0222496
0.0200106
0.0179937
0.0161822
0.0145637
0.0131303
0.0118773
0.0108026
0.00990584
0.0091878
0.00864882
0.00828773
0.00810066
0.00808029
0.00821669
0.00850108
0.0088938
0.00933012
0.00980209
0.0103119
0.0108645
0.0114642
0.0121138
0.0128147
0.0135671
0.0143705
0.0152239
0.0161264
0.0170775
0.018077
0.0191254
0.0202242
0.0213758
0.0225839
0.0238533
0.0251905
0.026603
0.0280998
0.029689
0.0313515
0.0330167
0.0346082
0.0360303
0.0371352
0.0376303
0.0367914
0.0329507
0.0240842
0.0356359
0.0525981
0.0626102
0.0671912
0.0679474
0.066405
0.0635183
0.0598257
0.0556607
0.0512524
0.0467754
0.0423754
0.038185
0.0343341
0.0308891
0.0277982
0.0250175
0.0225111
0.0202504
0.0182134
0.0163836
0.0147493
0.013303
0.0120403
0.0109597
0.0100612
0.00934564
0.00881348
0.00846319
0.00829009
0.00828546
0.00843727
0.008734
0.00913222
0.00956724
0.0100328
0.0105326
0.0110726
0.011658
0.0122923
0.012977
0.0137125
0.0144983
0.0153334
0.0162168
0.0171477
0.0181257
0.0191513
0.0202255
0.0213506
0.0225298
0.0237677
0.0250701
0.0264444
0.0278989
0.0294415
0.0310642
0.0326961
0.034262
0.035668
0.0367718
0.0372938
0.036538
0.0328478
0.0241084
0.0361856
0.0533749
0.0634644
0.0680229
0.0687207
0.0671171
0.0641708
0.0604209
0.0562012
0.0517417
0.0472182
0.0427784
0.0385572
0.0346874
0.0312208
0.0281068
0.0253024
0.0227726
0.0204894
0.0184314
0.0165827
0.0149322
0.0134726
0.0122003
0.011114
0.0102142
0.00950198
0.00897772
0.00863958
0.00848198
0.00849465
0.00866329
0.00897343
0.00937757
0.00981111
0.0102696
0.0107584
0.0112848
0.0118549
0.0124725
0.0131397
0.0138569
0.0146238
0.0154392
0.0163021
0.0172115
0.0181667
0.0191681
0.0202165
0.0213137
0.0224627
0.0236677
0.0249341
0.0262689
0.0276797
0.0291744
0.0307554
0.032352
0.0338896
0.0352767
0.0363759
0.0369208
0.0362444
0.032708
0.0241072
0.0367337
0.0541495
0.0643147
0.0688502
0.0694909
0.0678282
0.0648245
0.0610191