/*--------------------------------*- C++ -*----------------------------------*\
| =========                 |                                                 |
| \\      /  F ield         | OpenFOAM: The Open Source CFD Toolbox           |
|  \\    /   O peration     | Version:  2412                                  |
|   \\  /    A nd           | Website:  www.openfoam.com                      |
|    \\/     M anipulation  |                                                 |
\*---------------------------------------------------------------------------*/
FoamFile
{
    version     2.0;
    format      ascii;
    arch        "LSB;label=32;scalar=64";
    class       volScalarField;
    location    "2000";
    object      k;
}
// * * * * * * * * * * * * * * * * * * * * * * * * * * * * * * * * * * * * * //

dimensions      [0 2 -2 0 0 0 0];

internalField   nonuniform List<scalar> 
32240
(
0.00368461
0.00176605
0.00152361
0.0017112
0.00192897
0.00202625
0.00200253
0.00192525
0.00183212
0.00174156
0.0016618
0.00159593
0.00154446
0.00150664
0.0014812
0.00146676
0.00146198
0.00146571
0.00147698
0.00149502
0.00151923
0.00154915
0.00158443
0.00162482
0.00167011
0.00172007
0.00177443
0.00183274
0.00189427
0.00195783
0.00202152
0.00208247
0.00213639
0.0021733
0.00219126
0.00219392
0.00218467
0.00216637
0.0021415
0.00211209
0.00207979
0.00204589
0.00201145
0.00197732
0.00194418
0.00191262
0.00188317
0.00185633
0.00183257
0.00181242
0.00179646
0.00178534
0.0017798
0.00178066
0.00178877
0.00180475
0.00182841
0.00185725
0.0018826
0.00188058
0.00179603
0.00161351
0.00145156
0.00169252
0.00350415
0.00376841
0.00180563
0.00156596
0.00175855
0.00197689
0.00206582
0.00203561
0.00195511
0.00186173
0.00177305
0.00169656
0.00163476
0.00158771
0.00155438
0.00153335
0.00152316
0.00152247
0.00153013
0.00154525
0.00156709
0.00159508
0.00162883
0.00166802
0.00171245
0.00176193
0.00181627
0.00187519
0.00193823
0.00200462
0.00207306
0.0021415
0.00220677
0.00226422
0.00230308
0.00232139
0.00232316
0.00231209
0.00229125
0.00226335
0.00223056
0.00219464
0.00215696
0.00211864
0.00208053
0.00204336
0.00200771
0.00197411
0.00194302
0.00191492
0.0018903
0.00186971
0.00185377
0.0018432
0.00183883
0.00184152
0.00185202
0.00187038
0.00189462
0.00191705
0.00191544
0.00183579
0.00165362
0.00148727
0.00172032
0.00354806
0.00379906
0.00182214
0.00158558
0.00178072
0.00199871
0.00208304
0.00204939
0.00196728
0.00187375
0.00178592
0.00171092
0.00165097
0.00160591
0.00157458
0.0015555
0.00154718
0.0015483
0.00155774
0.00157461
0.00159819
0.00162795
0.00166351
0.00170458
0.00175096
0.00180249
0.00185897
0.00192014
0.00198551
0.00205428
0.00212511
0.00219585
0.00226321
0.0023223
0.00236201
0.00238038
0.00238158
0.00236948
0.00234727
0.00231776
0.00228321
0.00224542
0.00220582
0.00216554
0.00212546
0.00208632
0.0020487
0.00201311
0.00198003
0.00194991
0.00192322
0.00190048
0.00188231
0.0018694
0.00186256
0.00186266
0.0018705
0.00188623
0.00190804
0.00192877
0.00192718
0.00185039
0.00167051
0.00150473
0.00173846
0.0035876
0.0038578
0.00185143
0.00161839
0.00181802
0.00203737
0.00211627
0.00207868
0.00199501
0.00190207
0.00181629
0.00174413
0.00168732
0.00164548
0.00161735
0.00160139
0.00159611
0.00160017
0.00161251
0.00163224
0.00165869
0.00169136
0.0017299
0.00177404
0.00182363
0.00187852
0.00193853
0.00200339
0.00207262
0.00214537
0.00222022
0.00229487
0.00236582
0.00242784
0.00246919
0.00248791
0.00248844
0.00247489
0.00245067
0.00241875
0.00238152
0.00234086
0.00229828
0.00225496
0.0022118
0.00216955
0.0021288
0.00209007
0.00205382
0.00202049
0.00199054
0.00196446
0.00194284
0.00192633
0.00191569
0.00191176
0.0019153
0.00192661
0.00194432
0.00196204
0.00195982
0.00188605
0.00170554
0.00153557
0.00176272
0.00362736
0.00390242
0.00187311
0.00164164
0.0018427
0.00206035
0.00213391
0.00209284
0.0020079
0.00191528
0.00183091
0.00176085
0.00170652
0.00166732
0.00164183
0.00162846
0.00162569
0.0016322
0.00164694
0.00166906
0.00169792
0.00173305
0.00177411
0.00182089
0.00187323
0.001931
0.00199405
0.0020621
0.00213464
0.00221079
0.00228904
0.00236697
0.00244085
0.00250517
0.00254766
0.00256637
0.00256599
0.00255088
0.0025246
0.00249029
0.00245045
0.00240705
0.00236165
0.00231547
0.00226945
0.00222434
0.00218074
0.00213916
0.00210006
0.00206386
0.002031
0.00200196
0.0019773
0.00195766
0.0019438
0.00193657
0.00193679
0.00194485
0.00195962
0.00197521
0.00197263
0.00190165
0.00172402
0.00155495
0.00178143
0.00366433
0.00395805
0.00190216
0.00167569
0.00188186
0.00210135
0.00216957
0.00212482
0.00203868
0.00194684
0.00186437
0.00179681
0.00174525
0.0017089
0.00168623
0.00167561
0.00167551
0.00168463
0.00170195
0.00172665
0.00175811
0.0017959
0.00183972
0.00188937
0.00194473
0.00200569
0.00207212
0.00214373
0.00222002
0.00230004
0.00238223
0.00246401
0.00254143
0.00260865
0.00265277
0.00267182
0.00267079
0.00265427
0.00262604
0.00258941
0.002547
0.00250087
0.00245265
0.0024036
0.00235469
0.00230668
0.00226018
0.0022157
0.00217368
0.00213454
0.00209869
0.00206661
0.0020388
0.0020159
0.00199861
0.00198777
0.00198417
0.00198825
0.00199904
0.00201121
0.00200723
0.00193852
0.00176028
0.00158765
0.00180802
0.00370933
0.00400666
0.00192581
0.00170086
0.00190809
0.00212539
0.00218816
0.00214025
0.00205337
0.00196248
0.00188212
0.00181727
0.0017687
0.0017354
0.00171574
0.00170804
0.00171078
0.00172269
0.00174277
0.00177022
0.00180446
0.0018451
0.00189187
0.0019446
0.00200318
0.00206754
0.00213754
0.0022129
0.0022931
0.00237714
0.00246336
0.00254903
0.00262996
0.00269995
0.00274546
0.00276455
0.00276251
0.00274419
0.0027136
0.0026742
0.00262877
0.00257946
0.00252798
0.00247561
0.00242337
0.00237205
0.00232224
0.00227447
0.00222915
0.0021867
0.00214752
0.00211204
0.00208076
0.00205426
0.00203326
0.00201854
0.00201095
0.00201102
0.00201802
0.00202721
0.00202202
0.0019555
0.00178014
0.00160852
0.00182757
0.00374629
0.00406346
0.00195581
0.00173616
0.00194817
0.00216687
0.00222427
0.00217304
0.00208529
0.0019953
0.00191688
0.00185452
0.00180868
0.00177814
0.00176121
0.00175617
0.00176151
0.00177598
0.00179859
0.0018286
0.00186546
0.0019088
0.00195837
0.00201405
0.00207577
0.00214345
0.00221698
0.0022961
0.00238026
0.00246843
0.00255883
0.0026486
0.0027333
0.00280636
0.00285356
0.00287295
0.00287014
0.00285025
0.00281751
0.00277559
0.00272737
0.00267514
0.00262064
0.00256523
0.00250994
0.00245556
0.00240272
0.00235192
0.00230358
0.0022581
0.00221584
0.00217722
0.00214272
0.00211289
0.00208839
0.00206999
0.00205853
0.00205458
0.00205758
0.00206327
0.00205624
0.00199131
0.00181569
0.00164153
0.00185492
0.00379259
0.00411539
0.00198156
0.00176408
0.00197736
0.00219402
0.00224601
0.00219193
0.00210391
0.0020154
0.00193947
0.0018801
0.00183743
0.00181008
0.00179627
0.00179426
0.00180255
0.00181994
0.00184546
0.00187839
0.00191823
0.00196464
0.00201741
0.00207644
0.00214168
0.0022131
0.00229058
0.00237386
0.00246237
0.00255503
0.00264996
0.00274412
0.00283279
0.00290901
0.00295784
0.00297734
0.00297346
0.00295162
0.0029163
0.00287137
0.00281987
0.00276417
0.00270613
0.00264714
0.00258827
0.00253033
0.00247396
0.00241965
0.00236783
0.00231886
0.0022731
0.00223096
0.00219285
0.00215931
0.00213097
0.00210857
0.00209293
0.00208466
0.0020834
0.00208536
0.00207624
0.00201272
0.00183932
0.00166579
0.00187685
0.00383214
0.00417359
0.00201233
0.00180001
0.00201729
0.00223449
0.00228114
0.00222418
0.00213578
0.00204856
0.00197486
0.00191817
0.00187834
0.00185384
0.00184283
0.00184357
0.00185454
0.00187458
0.00190276
0.00193839
0.001981
0.00203028
0.00208606
0.00214828
0.00221691
0.00229194
0.00237327
0.00246066
0.00255352
0.00265071
0.00275025
0.00284893
0.00294174
0.00302132
0.00307196
0.00309173
0.00308694
0.00306329
0.00302554
0.00297776
0.00292313
0.00286416
0.00280276
0.00274038
0.00267813
0.00261682
0.00255711
0.00249948
0.00244434
0.00239205
0.00234296
0.00229742
0.00225584
0.00221871
0.00218663
0.00216031
0.00214053
0.00212793
0.00212227
0.00212022
0.00210851
0.00204577
0.00187271
0.0016979
0.001904
0.00387791
0.00422888
0.0020404
0.00183107
0.00204994
0.00226539
0.00230675
0.00224731
0.00215904
0.00207362
0.00200261
0.00194904
0.00191244
0.00189115
0.00188328
0.00188706
0.00190104
0.00192406
0.00195521
0.00199387
0.00203959
0.0020921
0.00215126
0.00221704
0.00228945
0.0023685
0.00245411
0.00254604
0.00264366
0.00274579
0.00285034
0.00295389
0.00305114
0.00313427
0.00318676
0.00320669
0.00320077
0.00317503
0.00313449
0.00308346
0.0030253
0.00296263
0.00289744
0.00283125
0.00276519
0.00270013
0.0026367
0.0025754
0.00251662
0.00246071
0.00240799
0.0023588
0.00231352
0.00227259
0.00223657
0.00220614
0.00218205
0.00216496
0.00215475
0.00214849
0.00213394
0.00207169
0.00190003
0.00172555
0.00192838
0.00392008
0.00428855
0.00207198
0.00186764
0.00208971
0.00230494
0.00234111
0.0022793
0.00219117
0.00210747
0.002039
0.00198832
0.00195472
0.00193642
0.00193147
0.00193811
0.0019549
0.00198072
0.00201471
0.00205625
0.00210495
0.00216057
0.00222301
0.00229228
0.0023684
0.00245142
0.00254129
0.00263776
0.0027402
0.00284736
0.00295704
0.00306562
0.00316749
0.00325434
0.00330883
0.00332902
0.00332203
0.00329423
0.00325094
0.00319669
0.00313502
0.00306868
0.00299973
0.00292977
0.00285995
0.00279116
0.00272403
0.00265907
0.00259666
0.00253713
0.00248078
0.00242793
0.00237891
0.00233415
0.00229416
0.00225956
0.00223109
0.00220938
0.00219444
0.00218364
0.00216577
0.00210339
0.00193218
0.00175732
0.00195561
0.00396545
0.00434687
0.00210218
0.00190155
0.00212535
0.00233901
0.00237011
0.00230627
0.0022187
0.00213708
0.0020715
0.00202402
0.00199369
0.00197861
0.00197681
0.00198652
0.00200636
0.00203521
0.00207226
0.00211693
0.00216887
0.00222787
0.00229389
0.00236694
0.0024471
0.00253445
0.00262894
0.00273033
0.00283798
0.00295058
0.00306578
0.00317977
0.00328657
0.00337739
0.00343397
0.00345438
0.00344618
0.0034161
0.00336979
0.00331203
0.00324654
0.00317619
0.00310318
0.00302914
0.00295527
0.00288247
0.0028114
0.00274255
0.0026763
0.00261296
0.00255281
0.00249613
0.00244324
0.00239452
0.00235043
0.00231157
0.0022786
0.00225218
0.00223235
0.00221685
0.00219536
0.00213245
0.00196194
0.00178742
0.00198188
0.00400937
0.00440818
0.00213476
0.00193905
0.00216537
0.00237826
0.00240444
0.00233877
0.00225186
0.00217237
0.0021096
0.00206521
0.00203802
0.00202604
0.00202728
0.00203996
0.00206275
0.00209456
0.0021346
0.00218236
0.0022375
0.00229987
0.00236945
0.00244629
0.00253052
0.00262223
0.00272142
0.00282785
0.00294084
0.00305904
0.00317997
0.00329958
0.00341155
0.00350654
0.00356534
0.00358602
0.00357661
0.00354421
0.0034948
0.00343344
0.00336404
0.00328961
0.00321244
0.00313422
0.00305621
0.00297932
0.00290421
0.00283138
0.0027612
0.00269396
0.00262991
0.00256932
0.00251247
0.00245969
0.00241142
0.00236818
0.00233062
0.00229933
0.00227445
0.00225396
0.00222841
0.00216439
0.001994
0.00181963
0.00200971
0.00405483
0.00446924
0.00216692
0.00197552
0.00220353
0.00241494
0.00243637
0.00236919
0.00228327
0.00220615
0.00214643
0.00210531
0.00208142
0.00207269
0.00207708
0.00209289
0.00211877
0.00215367
0.00219687
0.00224788
0.00230641
0.00237235
0.0024457
0.00252659
0.00261515
0.00271152
0.00281573
0.00292752
0.00304623
0.0031704
0.00329746
0.00342307
0.00354055
0.00363998
0.00370114
0.0037221
0.00371137
0.00367648
0.00362376
0.00355856
0.00348499
0.00340622
0.00332464
0.00324201
0.00315963
0.00307844
0.0029991
0.00292212
0.00284784
0.00277654
0.00270847
0.00264384
0.00258291
0.00252598
0.00247342
0.00242572
0.00238346
0.00234721
0.00231713
0.00229146
0.00226153
0.00219592
0.0020255
0.00185157
0.00203748
0.00409984
0.00453231
0.00220068
0.00201427
0.00224427
0.00245458
0.00247149
0.00240305
0.00231828
0.00224362
0.00218694
0.00214906
0.00212842
0.00212287
0.00213038
0.00214927
0.00217821
0.00221621
0.00226257
0.00231685
0.00237881
0.00244836
0.00252556
0.00261057
0.00270357
0.00280473
0.0029141
0.00303145
0.00315608
0.00328649
0.00341993
0.00355185
0.00367512
0.00377924
0.0038429
0.00386417
0.00385208
0.0038146
0.00375843
0.00368923
0.00361133
0.00352805
0.00344189
0.00335468
0.00326777
0.00318212
0.0030984
0.00301711
0.00293859
0.00286311
0.00279088
0.00272209
0.00265696
0.00259576
0.0025388
0.00248652
0.00243945
0.00239811
0.00236267
0.00233157
0.00229688
0.00222909
0.00205815
0.00188462
0.00206614
0.00414547
0.00459572
0.00223459
0.00205297
0.0022845
0.00249341
0.00250601
0.00243661
0.00235326
0.00228125
0.00222775
0.00219321
0.0021759
0.00217362
0.00218431
0.00220637
0.00223846
0.00227965
0.00232928
0.00238696
0.00245247
0.0025258
0.00260703
0.00269636
0.00279403
0.00290024
0.00301506
0.00313829
0.0032692
0.00340622
0.00354646
0.00368508
0.00381452
0.00392364
0.00398996
0.00401157
0.00399804
0.00395781
0.00389801
0.00382458
0.0037421
0.00365407
0.0035631
0.0034711
0.00337945
0.00328914
0.00320086
0.0031151
0.00303219
0.00295238
0.00287586
0.00280279
0.00273335
0.00266776
0.00260631
0.00254935
0.00249737
0.00245082
0.00240988
0.00237314
0.00233335
0.00226285
0.00209098
0.0019179
0.00209506
0.00419088
0.00466045
0.00226957
0.00209313
0.00232624
0.00253394
0.00254251
0.00247245
0.0023907
0.00232145
0.00227116
0.00223995
0.00222595
0.00222692
0.0022408
0.00226602
0.00230129
0.0023457
0.00239866
0.00245979
0.00252895
0.00260615
0.00269152
0.00278531
0.0028878
0.00299924
0.00311973
0.00324909
0.00338657
0.00353052
0.0036779
0.00382358
0.00395953
0.00407394
0.0041431
0.00416508
0.00415006
0.00410695
0.00404332
0.00396546
0.0038782
0.0037852
0.0036892
0.00359219
0.0034956
0.00340044
0.00330741
0.003217
0.00312954
0.00304524
0.00296428
0.00288679
0.00281291
0.00274281
0.00267674
0.00261499
0.00255797
0.0025061
0.0024595
0.0024169
0.00237164
0.00229786
0.00212452
0.00195182
0.00212449
0.0042363
0.00472566
0.00230495
0.00213369
0.00236813
0.00257459
0.00257943
0.00250901
0.00242909
0.00236271
0.00231571
0.00228789
0.00227724
0.00228148
0.00229861
0.00232703
0.00236553
0.00241325
0.00246961
0.00253431
0.00260723
0.00268843
0.00277811
0.00287655
0.00298408
0.003101
0.00322745
0.00336326
0.00350766
0.00365895
0.00381389
0.00396707
0.00410995
0.00423
0.00430219
0.00432459
0.004308
0.00426186
0.00419421
0.00411169
0.00401939
0.00392118
0.00381991
0.00371766
0.00361591
0.0035157
0.00341774
0.00332251
0.00323033
0.00314139
0.00305585
0.00297381
0.00289536
0.00282065
0.00274986
0.00268322
0.00262107
0.00256376
0.00251138
0.00246273
0.00241168
0.00233406
0.00215868
0.0019862
0.00215426
0.00428135
0.00479162
0.00234106
0.00217525
0.00241101
0.00261641
0.00261786
0.00254737
0.00246946
0.00240605
0.00236236
0.00233792
0.00233061
0.00233813
0.0023585
0.00239016
0.00243193
0.002483
0.00254284
0.00261119
0.00268798
0.00277331
0.00286743
0.00297068
0.00308345
0.00320607
0.00333873
0.00348129
0.00363296
0.00379196
0.00395489
0.00411599
0.00426623
0.00439226
0.00446768
0.00449055
0.00447233
0.00442301
0.00435112
0.00426371
0.00416613
0.00406245
0.00395566
0.00384793
0.00374078
0.0036353
0.0035322
0.00343195
0.00333486
0.00324113
0.00315085
0.0030641
0.00298097
0.00290152
0.00282588
0.00275425
0.00268688
0.00262402
0.00256572
0.00251084
0.00245367
0.00237163
0.00219354
0.002021
0.00218429
0.00432578
0.00485795
0.00237762
0.0022174
0.00245437
0.00265885
0.00265728
0.00258703
0.0025113
0.00245094
0.0024106
0.00238955
0.00238559
0.00239638
0.00242002
0.00245495
0.00250004
0.00255452
0.00261792
0.00269001
0.00277078
0.00286037
0.0029591
0.00306735
0.00318556
0.00331414
0.00345331
0.00360296
0.00376229
0.00392943
0.00410081
0.00427032
0.00442838
0.0045608
0.00463969
0.00466309
0.00464316
0.00459051
0.00451417
0.00442161
0.00431849
0.00420908
0.00409651
0.00398305
0.00387028
0.0037593
0.00365084
0.00354538
0.00344321
0.0033445
0.00324932
0.00315774
0.00306977
0.00298546
0.00290488
0.00282816
0.00275547
0.002687
0.0026227
0.00256144
0.00249788
0.00241082
0.00222948
0.00205641
0.00221489
0.00437028
0.0049252
0.00241498
0.00226051
0.00249864
0.00270242
0.00269826
0.00262854
0.00255512
0.00249783
0.0024608
0.00244311
0.00244246
0.00245653
0.00248344
0.00252166
0.00257011
0.00262807
0.0026951
0.00277102
0.00285588
0.00294987
0.00305335
0.00316678
0.00329066
0.00342545
0.00357143
0.0037285
0.00389588
0.0040716
0.00425192
0.00443035
0.00459671
0.00473594
0.00481855
0.00484254
0.00482084
0.00476469
0.00468368
0.00458571
0.00447677
0.00436134
0.00424272
0.00412326
0.00400461
0.0038879
0.00377386
0.00366298
0.00355553
0.00345165
0.00335141
0.00325483
0.00316189
0.00307259
0.00298696
0.00290507
0.00282703
0.00275296
0.00268277
0.00261539
0.00254588
0.00245464
0.00227455
0.00209702
0.00224895
0.0044184
0.00499517
0.00245433
0.00230631
0.00254673
0.00274844
0.00274161
0.00267233
0.00260109
0.00254673
0.00251291
0.00249849
0.0025011
0.00251844
0.00254862
0.00259015
0.00264201
0.0027035
0.00277423
0.00285408
0.00294313
0.00304165
0.00315005
0.00326885
0.00339862
0.00353988
0.00369298
0.00385785
0.0040337
0.00421849
0.00440826
0.00459616
0.00477136
0.00491786
0.00500446
0.00502912
0.00500559
0.00494576
0.00485985
0.00475621
0.00464115
0.00451942
0.00439446
0.00426873
0.00414393
0.00402124
0.00390139
0.00378487
0.00367193
0.0035627
0.00345722
0.00335546
0.00325739
0.00316295
0.00307212
0.00298492
0.00290137
0.00282153
0.00274525
0.00267149
0.00259567
0.00249966
0.00232001
0.00213798
0.00228352
0.00446665
0.00506956
0.00249739
0.00235816
0.00260541
0.00279929
0.00278835
0.00271876
0.00264928
0.00259761
0.00256686
0.00255564
0.00256149
0.00258209
0.00261555
0.00266044
0.00271574
0.00278082
0.00285534
0.00293922
0.00303259
0.00313578
0.00324926
0.00337363
0.00350952
0.00365754
0.00381808
0.00399113
0.00417589
0.00437025
0.00457003
0.00476798
0.00495258
0.00510683
0.00519772
0.00522315
0.00519771
0.00513404
0.00504297
0.00493336
0.00481189
0.00468354
0.00455194
0.00441964
0.00428842
0.00415947
0.00403357
0.00391116
0.00379251
0.00367772
0.00356679
0.00345967
0.00335628
0.00325652
0.00316033
0.00306764
0.00297844
0.00289267
0.00281013
0.00272978
0.00264735
0.00254604
0.00236603
0.00217924
0.0023184
0.0045144
0.00514429
0.00254054
0.0024097
0.00266322
0.00284976
0.00283529
0.00276587
0.00269848
0.00264971
0.00262217
0.00261424
0.00262339
0.00264731
0.00268411
0.00273241
0.00279123
0.00285998
0.00293838
0.00302638
0.00312419
0.00323219
0.00335093
0.00348108
0.00362333
0.00377839
0.00394672
0.00412835
0.00432249
0.00452694
0.00473732
0.00494594
0.00514056
0.0053031
0.0053986
0.0054249
0.0053975
0.00532979
0.0052333
0.00511743
0.00498922
0.00485394
0.00471537
0.00457621
0.00443828
0.00430282
0.0041706
0.00404208
0.0039175
0.00379694
0.00368037
0.0035677
0.00345882
0.00335359
0.00325187
0.00315355
0.00305853
0.00296669
0.00287772
0.00279058
0.00270122
0.00259411
0.00241296
0.00222107
0.0023538
0.0045619
0.00521978
0.00258445
0.00246217
0.00272195
0.00290128
0.00288355
0.00281447
0.00274925
0.00270342
0.00267909
0.00267446
0.00268692
0.00271418
0.00275436
0.00280611
0.0028685
0.00294099
0.00302334
0.00311557
0.00321794
0.0033309
0.00345507
0.00359119
0.00374006
0.00390245
0.00407892
0.00426955
0.00447356
0.00468868
0.00491028
0.00513023
0.00533553
0.00550693
0.0056074
0.00563467
0.00560524
0.00553331
0.00543114
0.00530868
0.0051734
0.00503084
0.00488498
0.00473862
0.00459368
0.00445141
0.0043126
0.00417772
0.00404697
0.00392041
0.00379799
0.00367958
0.00356502
0.00345413
0.00334672
0.0032426
0.00314161
0.00304352
0.00294795
0.00285381
0.00275726
0.00264384
0.00246073
0.00226336
0.00238962
0.00460896
0.00529593
0.002629
0.00251533
0.0027813
0.00295361
0.00293295
0.00286444
0.00280151
0.00275869
0.00273762
0.00273631
0.0027521
0.00278271
0.00282629
0.00288152
0.00294753
0.00302382
0.0031102
0.00320676
0.0033138
0.00343186
0.00356163
0.00370393
0.00385967
0.00402971
0.00421468
0.00441475
0.00462915
0.00485553
0.00508902
0.00532102
0.00553771
0.00571859
0.00582441
0.0058528
0.00582128
0.00574493
0.00563679
0.00550741
0.00536471
0.00521451
0.005061
0.00490712
0.00475484
0.00460546
0.00445979
0.00431828
0.00418111
0.00404833
0.00391984
0.00379549
0.00367507
0.00355834
0.00344506
0.00333499
0.00322786
0.00312337
0.00302103
0.00291969
0.00281565
0.00269545
0.00250957
0.00230623
0.00242591
0.00465552
0.00537261
0.00267411
0.00256909
0.00284118
0.0030067
0.00298342
0.0029157
0.00285519
0.00281543
0.00279765
0.00279968
0.00281883
0.00285282
0.00289983
0.00295859
0.00302827
0.00310843
0.00319892
0.0032999
0.00341174
0.00353504
0.00367058
0.00381929
0.00398216
0.00416015
0.00435402
0.00456399
0.00478932
0.00502759
0.00527369
0.00551849
0.00574732
0.00593836
0.00604995
0.0060796
0.00604593
0.00596496
0.00585055
0.00571391
0.00556341
0.00540519
0.00524367
0.0050819
0.00492195
0.00476515
0.00461232
0.00446389
0.00432005
0.0041808
0.00404602
0.0039155
0.003789
0.00366624
0.0035469
0.00343068
0.00331724
0.00320616
0.00309688
0.00298812
0.0028763
0.00274882
0.0025593
0.00234945
0.00246242
0.00470122
0.00544985
0.00271984
0.00262354
0.00290173
0.00306069
0.00303512
0.0029684
0.00291042
0.00287377
0.0028593
0.00286468
0.00288719
0.00292457
0.00297503
0.00303735
0.00311074
0.00319482
0.0032895
0.00339498
0.00351173
0.00364041
0.00378191
0.00393723
0.00410749
0.00429377
0.00449692
0.00471727
0.00495411
0.00520494
0.00546439
0.00572282
0.0059646
0.00616652
0.00628434
0.00631542
0.00627955
0.00619374
0.00607275
0.00592848
0.00576979
0.00560317
0.00543325
0.00526323
0.00509525
0.0049307
0.0047704
0.00461477
0.00446398
0.004318
0.00417668
0.00403978
0.003907
0.00377799
0.00365241
0.00352985
0.00340991
0.00329207
0.00317563
0.00305925
0.00293936
0.00280412
0.00261013
0.00239318
0.00249927
0.00474612
0.00552753
0.00276611
0.0026786
0.00296286
0.00311554
0.003088
0.00302247
0.00296711
0.00293363
0.00292248
0.00293121
0.0029571
0.00299788
0.00305182
0.00311772
0.00319487
0.00328292
0.00338185
0.00349194
0.00361371
0.00374792
0.00389554
0.0040577
0.00423563
0.00443053
0.00464338
0.00487461
0.00512356
0.00538765
0.00566126
0.00593418
0.00618979
0.00640337
0.00652792
0.00656061
0.00652249
0.00643164
0.00630374
0.00615145
0.00598415
0.00580871
0.00562998
0.00545132
0.00527495
0.0051023
0.0049342
0.00477107
0.00461306
0.0044601
0.00431199
0.00416847
0.00402918
0.00389373
0.00376169
0.00363261
0.00350598
0.0033812
0.00325743
0.0031332
0.00300497
0.00286151
0.00266222
0.0024375
0.00253648
0.00479017
0.00560555
0.00281291
0.00273427
0.00302463
0.00317133
0.00314215
0.003078
0.00302535
0.00299507
0.00298725
0.00299933
0.0030286
0.00307279
0.00313021
0.00319973
0.00328066
0.00337273
0.00347599
0.00359076
0.00371766
0.00385753
0.00401146
0.00418067
0.00436654
0.0045704
0.00479338
0.00503602
0.0052977
0.0055758
0.00586443
0.00615276
0.00642314
0.00664921
0.00678104
0.00681554
0.00677513
0.006679
0.00654385
0.00638314
0.00620681
0.0060221
0.00583414
0.00564643
0.00546129
0.00528018
0.00510394
0.004933
0.00476746
0.00460724
0.0044521
0.00430171
0.00415568
0.00401357
0.00387488
0.00373908
0.00360557
0.00347365
0.00334234
0.00321005
0.0030732
0.00292107
0.00271564
0.00248242
0.00257399
0.00483321
0.00568371
0.00286006
0.00279031
0.0030868
0.00322787
0.00319737
0.00313482
0.00308499
0.00305794
0.00305348
0.00306892
0.00310158
0.00314919
0.00321011
0.00328327
0.00336803
0.00346418
0.00357182
0.00369136
0.00382351
0.00396919
0.00412959
0.00430608
0.00450017
0.00471336
0.0049469
0.00520148
0.00547656
0.00576946
0.006074
0.00637873
0.00666488
0.00690436
0.00704405
0.0070806
0.00703786
0.00693621
0.00679346
0.0066239
0.00643808
0.00624365
0.006046
0.00584881
0.00565449
0.00546454
0.00527982
0.00510073
0.00492737
0.0047596
0.00459715
0.00443965
0.00428665
0.00413765
0.00399209
0.00384937
0.00370879
0.00356953
0.00343049
0.00328992
0.00314417
0.00298294
0.00277055
0.00252805
0.00261183
0.00487516
0.00576201
0.00290763
0.00284683
0.0031495
0.0032853
0.00325383
0.00319305
0.00314612
0.00312235
0.00312125
0.00314006
0.0031761
0.00322713
0.00329157
0.00336838
0.003457
0.00355727
0.00366935
0.00379375
0.00393123
0.00408285
0.0042499
0.0044339
0.00463649
0.00485935
0.00510391
0.005371
0.00566017
0.00596868
0.00629009
0.00661229
0.00691528
0.00716913
0.00731732
0.00735618
0.00731106
0.00720367
0.00705294
0.00687408
0.00667829
0.00647365
0.00626584
0.00605872
0.00585479
0.0056556
0.00546203
0.00527445
0.00509294
0.00491732
0.00474729
0.00458242
0.00442221
0.00426609
0.00411344
0.00396358
0.00381571
0.00366891
0.00352193
0.00337286
0.00321794
0.00304718
0.00282703
0.00257439
0.00264991
0.00491582
0.00584034
0.00295554
0.00290378
0.00321273
0.00334363
0.0033115
0.00325269
0.00320875
0.00318827
0.00319053
0.00321272
0.00325213
0.00330659
0.00337454
0.00345503
0.00354753
0.00365195
0.00376853
0.00389785
0.00404077
0.00419846
0.00437233
0.00456405
0.00477543
0.00500833
0.00526437
0.00554455
0.00584853
0.00617354
0.00651283
0.0068536
0.00717459
0.00744387
0.00760125
0.0076427
0.00759517
0.00748178
0.00732267
0.00713405
0.00692778
0.00671242
0.00649395
0.00627642
0.00606244
0.0058536
0.00565078
0.00545435
0.00526435
0.00508058
0.00490268
0.00473016
0.00456247
0.00439898
0.00423901
0.00408179
0.00392643
0.00377188
0.00361675
0.00345896
0.00329459
0.00311388
0.00288516
0.00262148
0.0026882
0.00495499
0.00591859
0.00300373
0.00296102
0.00327635
0.00340277
0.00337034
0.00331368
0.00327281
0.00325568
0.00326132
0.00328689
0.00332968
0.00338755
0.00345904
0.0035432
0.00363961
0.00374821
0.00386934
0.00400365
0.0041521
0.00431598
0.00449683
0.00469649
0.00491694
0.00516025
0.00542825
0.00572213
0.00604167
0.00638408
0.00674233
0.00710287
0.00744307
0.0077289
0.00789622
0.00794056
0.00789061
0.00777095
0.00760306
0.00740418
0.0071869
0.00696028
0.00673064
0.0065022
0.00627769
0.00605876
0.00584628
0.00564063
0.0054418
0.00524955
0.00506346
0.00488301
0.00470758
0.00453648
0.00436895
0.00420413
0.00404106
0.00387854
0.00371504
0.00354829
0.0033742
0.00318313
0.00294507
0.00266939
0.00272665
0.00499253
0.00599682
0.00305226
0.00301872
0.00334056
0.00346289
0.00343048
0.00337614
0.00333843
0.00332467
0.00333369
0.00336262
0.00340878
0.00347007
0.00354507
0.00363292
0.00373323
0.00384604
0.00397176
0.00411111
0.00426518
0.00443536
0.00462335
0.00483115
0.00506096
0.00531505
0.00559549
0.00590369
0.00623958
0.00660036
0.00697869
0.00736026
0.007721
0.00802458
0.00820265
0.00825022
0.00819782
0.00807163
0.00789452
0.00768485
0.007456
0.00721757
0.00697619
0.00673632
0.0065008
0.00627131
0.00604876
0.00583349
0.00562546
0.00542439
0.00522981
0.00504113
0.00485768
0.0046787
0.00450336
0.00433071
0.00415968
0.00398897
0.00381688
0.00364093
0.00345685
0.00325501
0.00300686
0.0027182
0.00276525
0.00502828
0.00607491
0.00310109
0.00307681
0.00340535
0.00352402
0.00349195
0.00344012
0.00340564
0.00339527
0.00340767
0.00343996
0.00348946
0.00355415
0.00363266
0.00372418
0.00382841
0.00394545
0.00407577
0.00422021
0.00437997
0.00455656
0.00475184
0.004968
0.00520744
0.00547269
0.00576606
0.00608922
0.00644226
0.00682241
0.00722202
0.00762597
0.00800864
0.00833127
0.00852095
0.00857212
0.00851726
0.00838426
0.00819746
0.00797646
0.00773546
0.0074846
0.00723092
0.00697907
0.00673202
0.0064915
0.00625843
0.00603313
0.00581553
0.00560528
0.00540188
0.00520467
0.00501292
0.00482579
0.00464238
0.00446166
0.00428245
0.00410331
0.0039224
0.00373702
0.00354267
0.0033297
0.00307074
0.00276812
0.00280409
0.00506223
0.00615274
0.00315012
0.00313518
0.0034706
0.00358607
0.00355469
0.00350555
0.0034744
0.00346747
0.00348326
0.0035189
0.00357174
0.00363981
0.00372182
0.00381701
0.00392515
0.00404641
0.00418136
0.00433094
0.00449644
0.00467953
0.00488225
0.00510696
0.00535631
0.00563308
0.00593989
0.00627867
0.00664972
0.00705029
0.00747243
0.00790018
0.00830628
0.00864933
0.00885154
0.00890671
0.00884938
0.00870928
0.00851233
0.00827941
0.00802562
0.00776172
0.00749512
0.00723072
0.00697159
0.00671955
0.0064755
0.00623975
0.00601218
0.0057924
0.00557984
0.00537379
0.00517344
0.00497789
0.00478615
0.00459711
0.00440948
0.0042217
0.00403173
0.0038367
0.00363182
0.00340734
0.00313687
0.00281925
0.00284315
0.00509418
0.00623041
0.00319949
0.00319404
0.00353658
0.00364928
0.00361892
0.00357263
0.00354488
0.00354141
0.00356058
0.00359955
0.0036557
0.00372713
0.00381261
0.00391145
0.00402348
0.00414896
0.00428855
0.00444328
0.00461458
0.00480427
0.00501454
0.00524799
0.00550752
0.00579619
0.00611694
0.006472
0.00686193
0.00728402
0.00773002
0.00818308
0.00861418
0.00897914
0.00919488
0.00925447
0.00919467
0.00904716
0.00883954
0.00859409
0.00832686
0.00804926
0.00776911
0.00749153
0.00721977
0.00695568
0.00670016
0.00645351
0.00621556
0.00598588
0.00576381
0.0055486
0.00533935
0.00513509
0.00493476
0.00473715
0.00454086
0.00434419
0.00414495
0.00394001
0.00372435
0.00348801
0.00320537
0.00287168
0.00288236
0.00512389
0.0063077
0.00324907
0.00325328
0.00360326
0.00371365
0.00368463
0.00364138
0.00361709
0.00361711
0.00363966
0.00368194
0.00374138
0.00381614
0.00390505
0.00400751
0.00412342
0.00425311
0.00439734
0.00455724
0.00473438
0.00493072
0.00514867
0.00539103
0.005661
0.00596194
0.00629714
0.00666918
0.00707889
0.00752364
0.00799489
0.00847485
0.00893264
0.00932106
0.0095514
0.00961588
0.00955361
0.00939836
0.00917954
0.00892092
0.00863956
0.00834756
0.00805318
0.0077618
0.00747681
0.00720011
0.00693263
0.00667461
0.00642586
0.00618587
0.00595393
0.00572921
0.00551074
0.00529749
0.00508829
0.00488184
0.00467663
0.00447083
0.00426206
0.00404698
0.00382025
0.0035717
0.00327624
0.0029254
0.0029216
0.00515102
0.00638442
0.0032987
0.00331267
0.00367039
0.00377898
0.00375168
0.00371167
0.00369097
0.00369451
0.00372048
0.00376607
0.00382879
0.00390686
0.00399919
0.00410525
0.00422501
0.0043589
0.00450775
0.00467283
0.00485584
0.0050589
0.00528462
0.00553607
0.00581672
0.00613029
0.00648045
0.00687016
0.00730057
0.00776917
0.00826713
0.00877567
0.00926193
0.00967549
0.00992156
0.00999141
0.00992667
0.00976335
0.00953276
0.00926029
0.00896408
0.00865695
0.00834762
0.00804178
0.00774293
0.00745306
0.00717308
0.00690321
0.00664321
0.00639251
0.00615032
0.00591575
0.00568774
0.00546518
0.00524682
0.00503126
0.00481687
0.00460169
0.00438316
0.00415769
0.00391966
0.00365857
0.0033497
0.00298067
0.00296099
0.00517554
0.00646073
0.00334858
0.00337251
0.0037383
0.00384559
0.00382034
0.00378375
0.00376672