/*--------------------------------*- C++ -*----------------------------------*\
| =========                 |                                                 |
| \\      /  F ield         | OpenFOAM: The Open Source CFD Toolbox           |
|  \\    /   O peration     | Version:  2412                                  |
|   \\  /    A nd           | Website:  www.openfoam.com                      |
|    \\/     M anipulation  |                                                 |
\*---------------------------------------------------------------------------*/
FoamFile
{
    version     2.0;
    format      ascii;
    arch        "LSB;label=32;scalar=64";
    class       volScalarField;
    location    "2000";
    object      nut;
}
// * * * * * * * * * * * * * * * * * * * * * * * * * * * * * * * * * * * * * //

dimensions      [0 2 -1 0 0 0 0];

internalField   nonuniform List<scalar> 
32240
(
4.02536e-06
1.56992e-05
3.34896e-05
6.65636e-05
0.000130087
0.000239801
0.000384098
0.000567335
0.000797116
0.00108323
0.00143678
0.00186952
0.00239322
0.00301892
0.00375626
0.0046128
0.00559336
0.00669941
0.00792865
0.00927429
0.0107244
0.0122616
0.0138625
0.0154987
0.0171364
0.0187375
0.0202609
0.0216631
0.0228993
0.0239247
0.0246908
0.0251457
0.0252253
0.0248751
0.0242123
0.0233176
0.0222478
0.0210438
0.019741
0.0183697
0.0169571
0.0155275
0.0141031
0.0127032
0.0113448
0.0100421
0.00880671
0.0076475
0.00657098
0.00558133
0.00468077
0.00386989
0.00314786
0.00251267
0.00196127
0.00148975
0.00109351
0.000767392
0.000505864
0.00030345
0.000155766
7.53559e-05
3.58373e-05
1.61893e-05
4.08626e-06
4.09037e-06
1.6014e-05
3.43764e-05
6.85918e-05
0.000135512
0.000249685
0.000400578
0.000593237
0.000835926
0.0011389
0.00151355
0.00197169
0.00252487
0.00318367
0.00395711
0.00485201
0.00587244
0.00701895
0.00828865
0.00967368
0.0111613
0.012733
0.0143651
0.0160283
0.0176887
0.0193079
0.0208448
0.0222564
0.0234986
0.0245279
0.025296
0.0257528
0.0258352
0.0254882
0.0248277
0.0239332
0.0228608
0.0216501
0.0203366
0.0189503
0.0175186
0.0160662
0.0146154
0.0131862
0.0117961
0.0104597
0.00918934
0.00799436
0.00688182
0.00585638
0.00492072
0.00407582
0.00332124
0.00265537
0.00207556
0.0015783
0.00115933
0.000813779
0.000536336
0.000321654
0.000165198
7.88359e-05
3.72113e-05
1.66121e-05
4.16233e-06
4.11358e-06
1.6137e-05
3.4747e-05
6.94467e-05
0.000137914
0.000254096
0.000407992
0.000604893
0.000853295
0.00116361
0.00154734
0.00201639
0.0025822
0.00325508
0.00404382
0.00495502
0.00599247
0.00715651
0.00844387
0.0098464
0.011351
0.012939
0.0145862
0.0162631
0.0179355
0.019565
0.0211103
0.0225286
0.023776
0.024809
0.0255798
0.0260388
0.0261227
0.0257766
0.0251157
0.0242194
0.0231435
0.0219275
0.0206068
0.0192116
0.0177693
0.0163048
0.0148407
0.0133973
0.0119922
0.0106404
0.00935424
0.00814352
0.00701538
0.00597467
0.00502419
0.00416501
0.0033968
0.00271801
0.00212623
0.00161812
0.00118947
0.000835427
0.0005508
0.000330355
0.000169634
8.04583e-05
3.7826e-05
1.68142e-05
4.20284e-06
4.16431e-06
1.63922e-05
3.54895e-05
7.11744e-05
0.000142623
0.000262683
0.00042221
0.000627124
0.00088649
0.00121101
0.00161216
0.00210153
0.00269031
0.00338872
0.00420516
0.00514569
0.00621344
0.00740826
0.00872604
0.010158
0.0116903
0.0133037
0.0149734
0.0166695
0.0183576
0.0199991
0.0215532
0.0229771
0.0242276
0.0252623
0.0260341
0.0264944
0.0265811
0.0262388
0.0255818
0.0246881
0.0236129
0.0223947
0.0210686
0.0196648
0.0182104
0.0167306
0.0152481
0.0137836
0.012355
0.0109778
0.00966489
0.00842644
0.00727001
0.00620108
0.00522285
0.00433677
0.00354279
0.00283965
0.00222491
0.00169537
0.00124732
0.000876485
0.000578025
0.000346834
0.000178338
8.36124e-05
3.90589e-05
1.71884e-05
4.2701e-06
4.19598e-06
1.65487e-05
3.59334e-05
7.21937e-05
0.000145386
0.000267868
0.000431055
0.000641083
0.000907194
0.0012404
0.00165241
0.00215492
0.00275901
0.00347456
0.00430968
0.00527013
0.00635871
0.00757505
0.00891458
0.0103682
0.0119217
0.0135554
0.0152441
0.0169578
0.0186614
0.0203165
0.0218819
0.0233149
0.0245726
0.0256126
0.0263885
0.0268522
0.0269416
0.0266009
0.0259437
0.0250481
0.0239685
0.0227435
0.0214083
0.0199929
0.018525
0.0170298
0.0155304
0.0140478
0.0126003
0.0112035
0.00987065
0.00861213
0.00743603
0.00634774
0.00535065
0.00444638
0.00363507
0.00291562
0.00228592
0.00174296
0.00128317
0.000902262
0.000595368
0.000357369
0.000183764
8.56408e-05
3.98393e-05
1.7437e-05
4.31746e-06
4.24575e-06
1.6808e-05
3.67151e-05
7.40372e-05
0.000150548
0.000277217
0.000446378
0.000664754
0.000942027
0.00128914
0.00171773
0.00223942
0.00286513
0.00360441
0.00446494
0.00545202
0.00656789
0.00781174
0.00917837
0.010658
0.0122359
0.0138919
0.0156003
0.0173306
0.0190477
0.0207131
0.0222856
0.0237231
0.0249833
0.0260241
0.0268006
0.0272656
0.0273577
0.0270212
0.0263684
0.0254762
0.0243982
0.0231722
0.021833
0.0204105
0.0189323
0.0174238
0.0159084
0.0144071
0.0129387
0.0115194
0.0101627
0.00887936
0.0076778
0.00656398
0.00554165
0.00461275
0.00377767
0.00303556
0.00238452
0.00182176
0.00134369
0.000946267
0.000625096
0.000375601
0.000193463
8.91185e-05
4.11941e-05
1.78477e-05
4.3914e-06
4.28132e-06
1.69843e-05
3.72162e-05
7.51978e-05
0.000153689
0.000283181
0.000456627
0.000681059
0.000966409
0.00132395
0.00176545
0.00230244
0.00294563
0.00370432
0.00458591
0.00559531
0.00673451
0.00800217
0.0093927
0.0108961
0.0124969
0.0141744
0.0159027
0.0176509
0.0193836
0.021062
0.0226451
0.0240908
0.0253573
0.0264023
0.0271823
0.0276503
0.0277455
0.0274117
0.0267604
0.025868
0.0247875
0.0235563
0.0222094
0.0207765
0.0192855
0.0177619
0.0162293
0.0147093
0.0132209
0.0117805
0.0104019
0.00909641
0.00787263
0.00673676
0.00569283
0.004743
0.00388789
0.00312683
0.00245811
0.00187919
0.00138678
0.00097703
0.000645646
0.000388034
0.000199875
9.15041e-05
4.21115e-05
1.81338e-05
4.44467e-06
4.33205e-06
1.7252e-05
3.80315e-05
7.7132e-05
0.000159155
0.000293064
0.00047273
0.000705594
0.00100187
0.00137293
0.00183051
0.00238596
0.00304974
0.00383083
0.00473624
0.00577044
0.00693513
0.0082284
0.00964409
0.0111717
0.0127953
0.0144938
0.0162409
0.0180053
0.0197511
0.0214398
0.0230303
0.0244808
0.0257502
0.0267966
0.0275776
0.0280472
0.0281455
0.0278163
0.0271694
0.0262804
0.0252013
0.023969
0.022618
0.021178
0.0196767
0.01814
0.0165917
0.0150536
0.0135451
0.0120831
0.0106818
0.00935282
0.00810512
0.00694517
0.00587744
0.00490433
0.00402667
0.00324402
0.00255484
0.00195679
0.00144681
0.0010213
0.000676194
0.000407185
0.00021024
9.5228e-05
4.35627e-05
1.85719e-05
4.52301e-06
4.37172e-06
1.74525e-05
3.86142e-05
7.85013e-05
0.00016293
0.000300212
0.000484942
0.000724943
0.0010307
0.00141372
0.00188574
0.00245801
0.00314078
0.00394275
0.0048706
0.00592841
0.00711756
0.00843561
0.00987625
0.0114282
0.013075
0.0147951
0.0165617
0.0183432
0.0201036
0.021804
0.0234036
0.0248607
0.0261348
0.027184
0.0279675
0.0284397
0.0285413
0.0282159
0.0275722
0.0266851
0.0256056
0.0243704
0.0230137
0.0215652
0.0200526
0.0185019
0.0169373
0.0153809
0.0138524
0.0123689
0.0109452
0.00959301
0.00832181
0.00713856
0.00604782
0.00505228
0.004153
0.00334973
0.00264119
0.00202519
0.00149892
0.00105898
0.000701594
0.000422672
0.000218322
9.81815e-05
4.47004e-05
1.89195e-05
4.58627e-06
4.42303e-06
1.77248e-05
3.94463e-05
8.04844e-05
0.000168554
0.000310416
0.000501575
0.000750206
0.001067
0.00146354
0.00195146
0.00254185
0.00324468
0.00406834
0.00501916
0.00610087
0.0073145
0.00865718
0.0101219
0.0116972
0.0133662
0.0151068
0.0168918
0.0186892
0.0204629
0.0221737
0.0237808
0.0252429
0.0265202
0.0275708
0.0283556
0.0288297
0.0289349
0.0286143
0.0279755
0.0270922
0.0260145
0.0247782
0.0234176
0.0219621
0.0204395
0.0188759
0.0172958
0.0157216
0.0141734
0.0126689
0.0112229
0.00984777
0.0085532
0.00734642
0.00623237
0.00521397
0.00429251
0.00346793
0.00273913
0.00210412
0.00156028
0.00110446
0.000733151
0.000442581
0.000229137
0.000102079
4.62199e-05
1.93762e-05
4.6674e-06
4.46715e-06
1.79529e-05
4.01244e-05
8.2097e-05
0.000173077
0.000318899
0.000515876
0.000772545
0.00109983
0.0015094
0.00201283
0.00262107
0.00334385
0.00418927
0.00516329
0.00626934
0.00750792
0.00887577
0.0103657
0.0119652
0.0136572
0.0154189
0.0172227
0.0190363
0.0208233
0.0225445
0.0241592
0.0256263
0.0269068
0.0279592
0.0287454
0.0292216
0.0293303
0.0290146
0.0283804
0.0275008
0.0264246
0.0251873
0.0238229
0.0223605
0.020828
0.0192517
0.0176562
0.0160644
0.0144966
0.0129707
0.0115022
0.0101037
0.00878517
0.00755432
0.00641635
0.00537452
0.00443039
0.00358413
0.00283482
0.00218071
0.00161935
0.00114784
0.000762917
0.000461091
0.000239013
0.000105649
4.76016e-05
1.97923e-05
4.74167e-06
4.51924e-06
1.82307e-05
4.09762e-05
8.41369e-05
0.000178889
0.000329493
0.000533181
0.000798804
0.00113745
0.00156077
0.00208026
0.00270663
0.00344938
0.00431629
0.00531298
0.00644264
0.0077053
0.00909731
0.0106109
0.0122334
0.013947
0.0157288
0.0175506
0.0193797
0.0211795
0.0229107
0.0245326
0.0260044
0.0272876
0.0283413
0.0291286
0.0296068
0.0297194
0.0294091
0.0287805
0.0279055
0.0268317
0.0255943
0.0242266
0.0227578
0.0212158
0.019627
0.0180165
0.0164073
0.0148202
0.0132736
0.0117831
0.0103618
0.00902012
0.0077659
0.00660471
0.00554006
0.0045737
0.00370601
0.00293624
0.00226283
0.00168354
0.0011957
0.000796333
0.000482293
0.000250582
0.000109808
4.92243e-05
2.02768e-05
4.827e-06
4.56734e-06
1.8484e-05
4.17428e-05
8.5976e-05
0.000184117
0.000339214
0.000549374
0.000823768
0.00117365
0.00161072
0.00214635
0.00279109
0.00355417
0.0044431
0.00546311
0.00661713
0.0079047
0.0093218
0.0108601
0.0125064
0.0142423
0.0160445
0.0178845
0.0197289
0.0215411
0.0232817
0.02491
0.0263859
0.0276709
0.0287254
0.0295136
0.0299937
0.0301101
0.0298057
0.0291832
0.0283133
0.0272427
0.0260058
0.0246357
0.0231613
0.0216105
0.0200099
0.0183848
0.0167584
0.015152
0.0135843
0.0120714
0.0106268
0.00926107
0.00798261
0.00679736
0.00570904
0.00471969
0.00382987
0.00303907
0.00234589
0.00174832
0.00124389
0.000829896
0.000503522
0.000262116
0.000113947
5.08352e-05
2.07569e-05
4.91138e-06
4.62052e-06
1.87697e-05
4.26235e-05
8.80974e-05
0.000190203
0.000350339
0.000567549
0.000851271
0.00121287
0.00166398
0.00221585
0.0028788
0.0036618
0.00457206
0.00561452
0.00679178
0.00810305
0.00954385
0.0111055
0.0127743
0.0145316
0.0163534
0.0182109
0.0200703
0.0218948
0.0236448
0.0252797
0.0267598
0.0280465
0.029102
0.029891
0.0303732
0.0304939
0.0301958
0.0295799
0.0287159
0.0276489
0.0264131
0.0250409
0.0235612
0.0220019
0.0203898
0.0187503
0.0171072
0.015482
0.0138939
0.0123592
0.0108919
0.00950303
0.00820113
0.00699241
0.00588096
0.004869
0.00395732
0.00314559
0.00243259
0.00181649
0.00129509
0.000865946
0.000526604
0.000274825
0.000118492
5.26132e-05
2.1284e-05
5.00322e-06
4.67206e-06
1.90457e-05
4.34711e-05
9.01457e-05
0.000196093
0.000361214
0.000585478
0.000878593
0.00125203
0.00171739
0.00228578
0.00296733
0.00377075
0.00470291
0.00576856
0.00696982
0.00830555
0.00977101
0.0113568
0.0130489
0.0148279
0.0166695
0.0185443
0.0204182
0.0222542
0.0240126
0.025653
0.0271363
0.0284238
0.0294794
0.0302686
0.0307525
0.0308775
0.0305863
0.0299778
0.0291205
0.0280583
0.0268245
0.0254513
0.0239673
0.0224003
0.0207773
0.0191239
0.0174643
0.0158203
0.0142116
0.0126548
0.0111643
0.00975161
0.00842557
0.00719274
0.00605743
0.00502221
0.00408808
0.00325487
0.00252157
0.00188654
0.00134777
0.000903124
0.000550472
0.000288003
0.000123187
5.44517e-05
2.18274e-05
5.09747e-06
4.72677e-06
1.93424e-05
4.43928e-05
9.23793e-05
0.000202558
0.000373031
0.000604734
0.000907591
0.00129312
0.00177286
0.00235773
0.00305764
0.00388103
0.00483448
0.00592252
0.00714689
0.00850612
0.00999501
0.0116039
0.0133181
0.015118
0.0169786
0.0188702
0.0207585
0.0226059
0.0243727
0.0260187
0.0275052
0.0287935
0.0298492
0.0306388
0.0311245
0.0312543
0.0309704
0.0303699
0.02952
0.0284629
0.0272318
0.025858
0.02437
0.0227957
0.0211622
0.0194954
0.0178197
0.0161575
0.0145286
0.0129504
0.0114373
0.0100012
0.0086515
0.00739491
0.00623621
0.00517805
0.00422165
0.00336704
0.00261339
0.00195925
0.00140283
0.00094228
0.000575832
0.000302142
0.000128206
5.64252e-05
2.24088e-05
5.19764e-06
4.78128e-06
1.96386e-05
4.53138e-05
9.46184e-05
0.000209066
0.00038497
0.000624236
0.000936999
0.00133482
0.00182916
0.00243078
0.00314937
0.00399313
0.00496834
0.0060793
0.00732734
0.00871063
0.0102236
0.011856
0.0135928
0.0154137
0.0172933
0.0192015
0.0211034
0.0229614
0.0247357
0.0263861
0.0278747
0.0291627
0.0302176
0.0310069
0.0314942
0.0316287
0.0313527
0.0307609
0.0299193
0.0288684
0.0276409
0.0262674
0.0247764
0.0231955
0.021552
0.0198721
0.0181806
0.0165002
0.0148512
0.0132513
0.0117154
0.0102559
0.00888221
0.00760164
0.00641909
0.00533756
0.0043585
0.00348212
0.00270777
0.00203418
0.00145978
0.000982954
0.000602319
0.000316999
0.000133454
5.84934e-05
2.30161e-05
5.30169e-06
4.83777e-06
1.99483e-05
4.6284e-05
9.69821e-05
0.000215974
0.000397562
0.000644646
0.000967525
0.00137776
0.0018867
0.00250493
0.0032419
0.00410558
0.00510198
0.00623513
0.00750607
0.00891263
0.0104488
0.0121039
0.0138625
0.0157037
0.0176018
0.019526
0.0214413
0.0233097
0.0250912
0.0267459
0.0282365
0.0295244
0.0305784
0.0313674
0.0318564
0.0319961
0.0317285
0.0311462
0.0303136
0.0292697
0.0280464
0.0266739
0.0251803
0.0235932
0.0219402
0.0202477
0.0185408
0.0168426
0.0151738
0.0135526
0.0119942
0.0105115
0.00911417
0.00780986
0.00660376
0.00549909
0.00449753
0.00359947
0.00280443
0.0021113
0.00151872
0.00102535
0.000630146
0.00033275
0.00013899
6.06842e-05
2.36575e-05
5.41092e-06
4.8946e-06
2.02614e-05
4.72685e-05
9.93875e-05
0.000223045
0.000410444
0.000665492
0.000998632
0.00142142
0.00194507
0.00258
0.00333546
0.00421914
0.0052369
0.00639239
0.00768638
0.00911644
0.010676
0.012354
0.0141344
0.0159959
0.0179124
0.0198522
0.0217804
0.0236585
0.0254464
0.0271046
0.0285959
0.0298828
0.0309352
0.0317234
0.0322141
0.0323591
0.0321006
0.0315286
0.0307061
0.0296701
0.0284521
0.0270816
0.0255862
0.0239938
0.0223319
0.0206272
0.0189051
0.0171892
0.0155006
0.013858
0.0122771
0.0107708
0.00934968
0.00802139
0.00679148
0.00566352
0.0046393
0.00371941
0.00290349
0.00219063
0.00157964
0.00106941
0.000659281
0.000349383
0.000144804
6.29937e-05
2.43318e-05
5.52505e-06
4.95261e-06
2.05836e-05
4.82879e-05
0.000101883
0.000230423
0.000423814
0.000686991
0.0010305
0.00146586
0.00200415
0.00265561
0.00342928
0.0043326
0.00537128
0.00654862
0.00786514
0.00931799
0.0109003
0.0126005
0.0144021
0.0162834
0.0182176
0.0201727
0.0221133
0.0240007
0.0257948
0.0274562
0.0289478
0.0302334
0.0312841
0.0320714
0.0325638
0.0327147
0.032466
0.0319052
0.0310936
0.0300665
0.0288547
0.027487
0.0259908
0.0243937
0.0227235
0.0210071
0.0192703
0.017537
0.0158289
0.0141651
0.0125617
0.0110322
0.00958728
0.00823507
0.00698143
0.00583013
0.00478321
0.00384142
0.00300457
0.00227188
0.00164233
0.00111505
0.000689698
0.000366918
0.0001509
6.54268e-05
2.50406e-05
5.6443e-06
5.0112e-06
2.09111e-05
4.93288e-05
0.000104435
0.00023801
0.000437517
0.000708929
0.00106289
0.00151084
0.00206376
0.00273171
0.00352352
0.00444644
0.005506
0.00670518
0.00804423
0.00951997
0.0111251
0.0128476
0.0146703
0.0165712
0.0185229
0.0204929
0.0224454
0.0243413
0.0261407
0.0278045
0.0292954
0.030579
0.0316271
0.0324132
0.0329072
0.0330641
0.0328259
0.0322772
0.0314776
0.0304605
0.029256
0.0278922
0.0263961
0.0247953
0.0231175
0.02139
0.0196389
0.0178886
0.0161612
0.0144762
0.0128502
0.0112971
0.00982815
0.00845171
0.00717399
0.00599903
0.00492909
0.00396514
0.00310714
0.00235447
0.00170626
0.00116182
0.000721103
0.000385225
0.000157329
6.79963e-05
2.57888e-05
5.76958e-06
5.0711e-06
2.12484e-05
5.04052e-05
0.00010707
0.00024586
0.000451587
0.000731287
0.00109568
0.00155617
0.00212359
0.00280785
0.00361761
0.00455988
0.00564002
0.00686075
0.00822197
0.00972021
0.0113477
0.013092
0.0149355
0.0168554
0.018824
0.0208084
0.0227721
0.024676
0.02648
0.0281457
0.0296353
0.0309164
0.0319618
0.0327464
0.0332421
0.0334055
0.0331785
0.0326426
0.0318559
0.0308499
0.0296536
0.0282945
0.0267994
0.0251956
0.023511
0.0217731
0.0200083
0.0182414
0.016495
0.0147891
0.0131407
0.0115642
0.010071
0.00867022
0.00736818
0.00616927
0.00507605
0.00408967
0.00321026
0.00243737
0.00177032
0.00120864
0.000752585
0.000403748
0.00016592
7.08926e-05
2.66217e-05
5.90699e-06
5.13404e-06
2.16072e-05
5.15619e-05
0.000110061
0.000253984
0.000465927
0.00075389
0.0011287
0.00160169
0.0021836
0.00288417
0.00371188
0.00467357
0.0057743
0.00701656
0.00840002
0.00992075
0.0115705
0.0133364
0.0152004
0.0171391
0.0191241
0.0211221
0.0230963
0.0250074
0.0268152
0.0284817
0.0299692
0.0312469
0.0322888
0.0330716
0.033569
0.0337392
0.0335241
0.033002
0.0322291
0.0312352
0.0300482
0.028695
0.0272017
0.0255959
0.0239052
0.0221576
0.0203797
0.0185968
0.0168318
0.0151053
0.0134348
0.0118351
0.010318
0.00889294
0.00756664
0.00634376
0.00522715
0.00421814
0.00331705
0.00252358
0.00183725
0.00125781
0.000785826
0.000423406
0.00017506
7.39579e-05
2.75022e-05
6.0518e-06
5.20213e-06
2.20051e-05
5.28796e-05
0.000114169
0.000262402
0.000480504
0.000776741
0.00116202
0.00164761
0.0022441
0.00296105
0.00380673
0.00478779
0.00590902
0.00717262
0.00857796
0.0101207
0.0117923
0.0135792
0.0154628
0.0174195
0.0194201
0.021431
0.0234149
0.0253324
0.0271431
0.0288098
0.0302945
0.0315683
0.0326064
0.0333872
0.0338864
0.0340639
0.0338614
0.033354
0.0325961
0.0316154
0.0304387
0.0290922
0.0276018
0.0259947
0.0242988
0.0225421
0.0207517
0.0189531
0.01717
0.0154232
0.0137308
0.0121079
0.0105671
0.00911778
0.00776725
0.00652043
0.00538037
0.00434865
0.00342577
0.00261162
0.00190585
0.00130844
0.000820265
0.000443924
0.000184686
7.71757e-05
2.84262e-05
6.20307e-06
5.27006e-06
2.24026e-05
5.41999e-05
0.000118323
0.000271006
0.000495461
0.000800166
0.00119606
0.00169431
0.00230533
0.00303853
0.00390193
0.00490207
0.00604342
0.00732793
0.00875466
0.010319
0.0120117
0.0138191
0.015722
0.0176961
0.0197117
0.0217348
0.0237278
0.0256509
0.0274638
0.0291299
0.0306112
0.0318805
0.0329144
0.033693
0.034194
0.0343793
0.0341904
0.0336988
0.0329568
0.0319904
0.0308252
0.0294867
0.0280002
0.0263929
0.0246926
0.0229276
0.0211252
0.0193116
0.0175108
0.0157439
0.0140299
0.0123841
0.0108194
0.00934592
0.0079711
0.0067002
0.00553658
0.00448197
0.00353711
0.00270202
0.00197654
0.00136085
0.00085613
0.000465453
0.000194877
8.05731e-05
2.9402e-05
6.36218e-06
5.33887e-06
2.28081e-05
5.55526e-05
0.000122603
0.000279815
0.000510688
0.000823886
0.00123037
0.00174117
0.00236657
0.00311576
0.00399659
0.00501545
0.00617652
0.00748157
0.00892933
0.0105147
0.0122283
0.0140556
0.0159771
0.017968
0.019998
0.0220326
0.0240339
0.0259618
0.0277763
0.0294406
0.030918
0.0321822
0.0332115
0.0339879
0.0344911
0.0346848
0.0345102
0.0340354
0.0333106
0.0323597
0.0312071
0.0298776
0.0283961
0.0267895
0.0250858
0.0233132
0.0214997
0.0196717
0.0178535
0.0160671
0.0143316
0.0126631
0.0110748
0.00957707
0.00817791
0.00688284
0.00569548
0.00461788
0.00365088
0.00279467
0.00204926
0.00141501
0.000893404
0.000487996
0.000205647
8.41523e-05
3.04308e-05
6.5293e-06
5.40832e-06
2.32199e-05
5.69319e-05
0.000126998
0.000288834
0.000526234
0.000848023
0.00126515
0.00178852
0.00242822
0.00319329
0.00409136
0.00512864
0.00630909
0.00763427
0.00910255
0.0107085
0.0124422
0.0142888
0.0162283
0.0182352
0.0202788
0.0223242
0.0243329
0.0262648
0.0280802
0.0297418
0.0312146
0.0324732
0.0334976
0.0342717
0.0347772
0.0349799
0.0348206
0.0343636
0.033657
0.0327227
0.0315839
0.0302645
0.0287892
0.0271843
0.0254781
0.0236989
0.021875
0.0200331
0.0181982
0.0163927
0.0146361
0.0129451
0.0113332
0.00981145
0.008388
0.00706875
0.00585759
0.00475679
0.0037674
0.00288981
0.00212416
0.00147104
0.000932182
0.000511624
0.000217044
8.79266e-05
3.15167e-05
6.70508e-06
5.47827e-06
2.36373e-05
5.83349e-05
0.000131496
0.000298035
0.000542034
0.000872453
0.0013002
0.00183604
0.0024899
0.00327061
0.00418564
0.005241
0.00644042
0.00778519
0.00927342
0.0108993
0.0126526
0.0145179
0.0164745
0.0184968
0.0205533
0.0226086
0.024624
0.0265591
0.0283746
0.0300327
0.0315002
0.0327527
0.0337718
0.0345436
0.0350517
0.035264
0.0351209
0.0346828
0.0339955
0.0330789
0.0319549
0.0306468
0.0291785
0.0275764
0.0258685
0.0240836
0.0222499
0.0203948
0.0185437
0.0167194
0.0149421
0.0132288
0.0115937
0.010048
0.00860028
0.00725687
0.0060219
0.00489788
0.00388603
0.00298693
0.0022009
0.00152869
0.000972318
0.000536266
0.000229044
9.18838e-05
3.26566e-05
6.88895e-06
5.54881e-06
2.40608e-05
5.97642e-05
0.00013611
0.000307434
0.00055811
0.000897201
0.00133556
0.00188378
0.00255162
0.00334773
0.00427944
0.0053525
0.00657043
0.00793432
0.00944201
0.0110873
0.0128595
0.0147428
0.016716
0.0187528
0.0208214
0.0228858
0.024907
0.0268443
0.0286591
0.0303129
0.0317745
0.0330204
0.0340339
0.0348032
0.0353143
0.0355368
0.035411
0.0349927
0.0343258
0.033428
0.03232
0.0310242
0.0295642
0.0279659
0.0262573
0.0244673
0.0226247
0.0207571
0.0188903
0.0170477
0.0152499
0.0135147
0.0118564
0.0102868
0.00881498
0.00744739
0.00618855
0.0050412
0.00400683
0.00308613
0.00227957
0.00158807
0.0010139
0.000562002
0.000241706
9.60444e-05
3.38573e-05
7.08205e-06
5.61982e-06
2.44899e-05
6.12175e-05
0.000140831
0.000317017
0.000574435
0.000922221
0.00137115
0.00193163
0.00261326
0.00342448
0.00437249
0.00546281
0.00669884
0.00808137
0.00960794
0.011272
0.0130624
0.014963
0.016952
0.0190025
0.0210823
0.0231549
0.025181
0.0271198
0.0289329
0.0305817
0.0320366
0.0332754
0.0342831
0.03505
0.0355644
0.0357979
0.0356902
0.0352929
0.0346475
0.0337696
0.0326787
0.0313963
0.0299457
0.0283524
0.0266441
0.02485
0.0229992
0.0211196
0.0192377
0.0173773
0.0155596
0.0138026
0.0121214
0.0105282
0.00903225
0.00764056
0.00635787
0.00518717
0.00413014
0.00318765
0.00236034
0.0016493
0.00105703
0.000588902
0.000255079
0.000100421
3.5123e-05
7.28503e-06
5.69132e-06
2.49246e-05
6.26952e-05
0.000145665
0.000326788
0.000591014
0.000947522
0.00140698
0.00197964
0.00267489
0.00350101
0.00446503
0.00557224
0.00682587
0.00822647
0.00977129
0.0114534
0.0132613
0.0151783
0.0171822
0.0192455
0.0213355
0.0234154
0.0254454
0.0273847
0.0291955
0.0308384
0.032286
0.0335172
0.0345189
0.0352836
0.0358017
0.0360469
0.0359584
0.0355831
0.0349604
0.0341037
0.0330309
0.031763
0.0303229
0.0287357
0.0270288
0.0252315
0.0233733
0.0214826
0.0195862
0.0177085
0.0158711
0.0140927
0.0123888
0.010772
0.00925208
0.00783629
0.00652971
0.00533558
0.0042558
0.00329139
0.00244315
0.00171234
0.0011017
0.000616982
0.000269189
0.000105019
3.64562e-05
7.49829e-06
5.76289e-06
2.53623e-05
6.41881e-05
0.000150583
0.000336691
0.000607743
0.000972939
0.00144282
0.00202744
0.00273603
0.00357665
0.00455624
0.00567981
0.00695043
0.00836843
0.00993075
0.0116301
0.0134547
0.0153871
0.0174051
0.0194803
0.0215797
0.0236659
0.025699
0.0276378
0.0294453
0.031082
0.0325218
0.033745
0.0347406
0.0355032
0.0360255
0.0362833
0.036215
0.035863
0.0352641
0.0344299
0.0333761
0.0321242
0.0306953
0.0291153
0.0274111
0.0256116
0.0237469
0.0218459
0.0199356
0.0180412
0.0161846
0.0143851
0.0126588
0.0110186
0.00947472
0.00803483
0.00670429
0.00548664
0.00438396
0.00339746
0.00252809
0.00177728
0.00114797
0.000646309
0.00028409
0.000109854
3.78626e-05
7.72277e-06
5.83464e-06
2.5804e-05
6.56997e-05
0.000155597
0.000346742
0.000624638
0.000998474
0.00147863
0.00207497
0.00279654
0.00365121
0.00464576
0.00578514
0.00707212
0.0085068
0.0100858
0.0118016
0.0136419
0.015589
0.01762
0.0197062
0.021814
0.0239057
0.0259409
0.0278789
0.0296817
0.0313116
0.0327431
0.0339582
0.0349476
0.0357084
0.0362356
0.0365069
0.0364599
0.036132
0.0355581
0.0347475
0.0337138
0.032479
0.031063
0.0294908
0.0277903
0.0259898
0.0241195
0.0222089
0.0202855
0.0183748
0.0164996
0.0146794
0.0129309
0.0112675
0.00969982
0.00823589
0.0068814
0.00564014
0.00451445
0.00350574
0.0026151
0.00184408
0.00119584
0.000676891
0.000299807
0.000114928
3.93437e-05
7.95873e-06
5.90643e-06
2.62489e-05
6.72277e-05
0.000160704
0.000356936
0.000641698
0.00102413
0.00151445
0.00212232
0.00285657
0.00372493
0.00473397
0.00588845
0.00719099
0.0086415
0.0102363
0.0119676
0.0138226
0.0157833
0.0178264
0.0199225
0.0220377
0.0241339
0.0261704
0.0281067
0.0299043
0.0315267
0.0329496
0.0341563
0.0351397
0.035899
0.0364316
0.0367172
0.0366926
0.03639
0.0358422
0.0350556
0.0340437
0.0328271
0.031425
0.0298617
0.0281657
0.0263652
0.0244902
0.0225708
0.0206349
0.0187087
0.0168152
0.0149748
0.0132044
0.0115181
0.00992684
0.00843902
0.00706067
0.00579588
0.00464718
0.00361618
0.00270412
0.00191272
0.00124532
0.000708755
0.000316375
0.000120249
4.09025e-05
8.20661e-06
5.9781e-06
2.66958e-05
6.87676e-05
0.000165888
0.000367238
0.00065885
0.00104979
0.00155007
0.00216916
0.00291568
0.00379722
0.00482013
0.00598904
0.00730641
0.00877191
0.0103817
0.0121274
0.0139962
0.0159695
0.0180236
0.0201286
0.0222503
0.0243501
0.026387
0.0283209
0.0301124
0.0317269
0.0331408
0.0343389
0.0353164
0.0360746
0.0366134
0.0369143
0.036913
0.0366369
0.036116
0.0353544
0.0343657
0.0331682
0.031781
0.030228
0.0285372
0.0267377
0.0248589
0.0229315
0.020984
0.0190428
0.0171316
0.0152713
0.0134795
0.0117705
0.0101558
0.00864422
0.00724208
0.00595375
0.00478204
0.0037287
0.00279512
0.00198318
0.0012964
0.000741925
0.00033383
0.000125822
4.25422e-05
8.46695e-06
6.04986e-06
2.71463e-05
7.03252e-05
0.000171169
0.000377681
0.000676139
0.0010755
0.00158555
0.00221554
0.00297388
0.00386803
0.00490424
0.00608689
0.00741828
0.00889789
0.0105216
0.0122808
0.0141623
0.0161471
0.0182111
0.0203241
0.0224512
0.0245536
0.0265901
0.0285208
0.0303057
0.0319118
0.0333163
0.0345058
0.0354775
0.0362351
0.0367807
0.0370979
0.0371211
0.0368723
0.0363795
0.0356439
0.0346793
0.0335021
0.0321309
0.0305893
0.0289045
0.027107
0.0252256
0.023291
0.0213325
0.0193769
0.0174487
0.015569
0.013756
0.0120246
0.0103867
0.00885143
0.00742557
0.00611373
0.00491895
0.00384319
0.00288802
0.00205543
0.00134909
0.000776432
0.000352215
0.000131659
4.42676e-05
8.74058e-06
6.12161e-06
2.75998e-05
7.18987e-05
0.000176546
0.000388265
0.000693573
0.00110128
0.00162095
0.0022616
0.00303142
0.00393771
0.00498647
0.00618202
0.00752651
0.00901922
0.0106558
0.0124274
0.0143204
0.0163156
0.0183885
0.0205083
0.0226398
0.0247439
0.0267792
0.028706
0.0304836
0.0320809
0.0334758
0.0346567
0.0356229
0.0363804
0.0369335
0.037268
0.0373168
0.0370964
0.0366327
0.0359239
0.0349844
0.0338285
0.0324744
0.0309453
0.0292681
0.0274731
0.02559
0.0236492
0.0216804
0.0197112
0.0177664
0.0158677
0.0140339
0.0122804
0.0106195
0.00906078
0.0076113
0.006276
0.00505817
0.00395996
0.00298309
0.00212967
0.00140354
0.000812385
0.000371612
0.000137784
4.60879e-05
9.02899e-06
6.19315e-06
2.80551e-05
7.34832e-05
0.000182001
0.00039895
0.00071107
0.00112699
0.00165603
0.00230695
0.00308776
0.00400558
0.00506624
0.00627393
0.00763065
0.0091355
0.0107839
0.0125668
0.0144702
0.0164746
0.0185552
0.0206807
0.0228156
0.0249205
0.0269537
0.0288759
0.0306458
0.0322339
0.0336191
0.0347914
0.0357523
0.0365102
0.0370718
0.0374246
0.0375
0.037309
0.0368752
0.0361942
0.0352807
0.0341472
0.0328113
0.0312957
0.0296273
0.0278359
0.0259522
0.024006
0.0220278
0.0200457
0.0180849
0.0161678
0.0143136
0.0125383
0.0108546
0.00927248
0.00779943
0.00644068
0.00519976
0.00407902
0.00308033
0.00220592
0.00145978
0.000849834
0.000392078
0.000144205
4.80072e-05
9.3329e-06
6.26485e-06
2.85146e-05
7.5088e-05
0.000187565
0.000409789
0.000728705
0.00115274
0.00169091
0.00235175
0.00314303
0.00407182
0.0051437
0.00636271
0.0077307
0.00924665
0.0109057
0.0126987
0.0146113
0.0166237
0.0187107
0.0208408
0.0229781
0.0250828
0.0271131
0.0290301
0.0307919
0.0323705
0.0337458
0.0349097
0.0358657
0.0366247
0.0371955
0.0375676
0.0376707
0.03751
0.037107
0.0364546
0.0355679
0.0344577
0.033141
0.0316401
0.0299815
0.0281946
0.0263113
0.0243609
0.0223742
0.0203799
0.0184038
0.0164688
0.0145947
0.0127979
0.0110916
0.00948637
0.00798988
0.00660771
0.00534368
0.00420034
0.00317972
0.00228418
0.00151783
0.000888812
0.00041366
0.00015093
5.00301e-05
9.65308e-06
6.33652e-06
2.89773e-05
7.6709e-05
0.000193233
0.000420776
0.00074648
0.00117853
0.00172566
0.00239615
0.0031975
0.0041366
0.00521891
0.00644836
0.00782664
0.00935257
0.0110211
0.0128229
0.0147434
0.0167625
0.0188547
0.0209881
0.0231267
0.0252303
0.027257
0.0291679
0.0309214
0.0324902
0.0338557
0.0350114
0.0359629
0.0367237
0.0373047
0.0376972
0.0378289
0.0376992
0.0373278
0.0367047
0.0358456
0.0347596
0.0334631
0.0319778
0.03033
0.0285489
0.0266665
0.0247128
0.0227185
0.0207127
0.018722
0.0167697
0.0148761
0.0130583
0.0113298
0.00970167
0.00818193
0.00677649
0.00548942
0.0043235
0.00328092
0.00236421
0.00157756
0.000929266
0.000436366
0.000157951
5.21559e-05
9.9894e-06
6.40775e-06
2.94403e-05
7.83359e-05
0.000198971
0.000431832
0.000764246
0.00120412
0.00175988
0.00243953
0.00325041
0.00419915
0.0052911
0.00653002
0.0079175
0.00945219
0.0111289
0.0129381
0.0148651
0.0168896
0.0189857
0.0211214
0.0232602
0.0253619
0.0273845
0.0292886
0.0310335
0.0325926
0.0339484
0.0350962
0.0360439
0.0368072
0.0373993
0.0378133
0.0379746
0.0378768
0.0375374
0.0369447
0.0361139
0.0350528
0.0337772
0.0323085
0.0306725
0.0288983
0.0270176
0.0250616
0.0230604
0.0210441
0.0190394
0.0170705
0.015158
0.0133195
0.0115692
0.00991845
0.00837568
0.00694713
0.00563715
0.00444873
0.00338422
0.00244626
0.00163914
0.000971339
0.000460306
0.000165299
5.43978e-05
1.03441e-05
6.47901e-06
2.99072e-05
7.9982e-05
0.000204819
0.000443034
0.000782119
0.00122967
0.00179377
0.00248214
0.00330195
0.0042596
0.00536028
0.00660763
0.00800313
0.00954531
0.0112289
0.0130441
0.0149761
0.0170045
0.0191032
0.02124
0.0233781
0.025477
0.027495
0.0293919
0.0311281
0.0326775
0.0340237
0.0351641
0.0361086
0.0368752
0.0374796
0.0379161
0.038108
0.0380429
0.0377356
0.0371746
0.0363726
0.0353371
0.0340833
0.032632
0.0310086
0.0292422
0.0273642
0.0254069
0.0233999
0.0213738
0.0193559
0.0173709
0.0154401
0.0135814
0.0118097
0.0101366
0.00857104
0.00711956
0.00578676
0.00457589
0.00348946
0.0025302
0.00170253
0.00101502
0.000485513
0.000172969
5.67565e-05
1.07173e-05
6.55003e-06
3.03762e-05
8.16415e-05
0.000210767
0.000454367
0.000800084
0.00125517
0.00182736
0.00252404
0.00335216
0.00431793
0.0054264
0.00668111
0.00808341