/*--------------------------------*- C++ -*----------------------------------*\
| =========                 |                                                 |
| \\      /  F ield         | OpenFOAM: The Open Source CFD Toolbox           |
|  \\    /   O peration     | Version:  2412                                  |
|   \\  /    A nd           | Website:  www.openfoam.com                      |
|    \\/     M anipulation  |                                                 |
\*---------------------------------------------------------------------------*/
FoamFile
{
    version     2.0;
    format      ascii;
    arch        "LSB;label=32;scalar=64";
    class       volScalarField;
    location    "2000";
    object      p;
}
// * * * * * * * * * * * * * * * * * * * * * * * * * * * * * * * * * * * * * //

dimensions      [0 2 -2 0 0 0 0];

internalField   nonuniform List<scalar> 
32240
(
-3.16028e-05
-3.15105e-05
-3.13958e-05
-3.12431e-05
-3.10166e-05
-3.06754e-05
-3.02005e-05
-2.96006e-05
-2.88631e-05
-2.79612e-05
-2.6862e-05
-2.55283e-05
-2.39191e-05
-2.1989e-05
-1.9689e-05
-1.6967e-05
-1.37686e-05
-1.00363e-05
-5.71128e-06
-7.3311e-07
4.95857e-06
1.14238e-05
1.87181e-05
2.68921e-05
3.59849e-05
4.60226e-05
5.70093e-05
6.89254e-05
8.17206e-05
9.53178e-05
0.000109618
0.000124551
0.000140251
0.000155731
0.000169882
0.000182785
0.000194417
0.00020477
0.000213878
0.000221807
0.000228655
0.000234533
0.000239557
0.000243839
0.000247482
0.000250579
0.000253209
0.000255438
0.000257323
0.00025891
0.000260237
0.000261335
0.000262232
0.000262948
0.000263504
0.000263917
0.000264203
0.00026438
0.000264464
0.000264478
0.000264452
0.000264397
0.000264331
0.000264275
0.00026424
0.000456095
0.000456202
0.00045636
0.00045657
0.000456847
0.000457201
0.000457613
0.00045802
0.000458388
0.000458699
0.000458942
0.000459105
0.000459178
0.000459149
0.000459005
0.00045873
0.000458299
0.00045768
0.000456831
0.000455701
0.000454231
0.000452351
0.000449989
0.000447069
0.000443525
0.000439299
0.000434363
0.000428717
0.000422406
0.000415521
0.000408203
0.000400625
0.000392894
0.00038559
0.000379309
0.000374078
0.000369954
0.000366961
0.000365081
0.000364249
0.000364366
0.000365306
0.000366931
0.000369095
0.000371657
0.000374484
0.000377457
0.00038047
0.000383437
0.000386284
0.000388954
0.000391403
0.000393598
0.000395517
0.000397148
0.000398489
0.000399543
0.000400322
0.000400843
0.000401138
0.000401264
0.000401261
0.000401183
0.000401084
0.000400998
0.000609427
0.000609527
0.000609663
0.000609845
0.000610089
0.00061041
0.000610808
0.000611245
0.000611709
0.000612202
0.000612735
0.000613325
0.000613991
0.000614756
0.000615643
0.000616673
0.000617871
0.000619258
0.000620854
0.000622677
0.00062474
0.00062705
0.00062961
0.000632415
0.000635454
0.000638708
0.000642151
0.000645755
0.000649495
0.000653356
0.00065735
0.000661551
0.000666179
0.000671186
0.000676342
0.000681685
0.000687175
0.000692751
0.000698349
0.000703906
0.000709365
0.000714677
0.000719799
0.000724695
0.000729335
0.000733694
0.000737753
0.000741497
0.000744919
0.000748014
0.000750782
0.000753227
0.000755357
0.000757181
0.000758708
0.000759951
0.000760924
0.000761642
0.000762127
0.000762409
0.000762539
0.000762548
0.000762483
0.000762398
0.000762326
0.000904872
0.000904978
0.000905126
0.000905327
0.000905601
0.000905967
0.000906415
0.000906907
0.000907428
0.00090798
0.000908569
0.000909206
0.000909903
0.000910672
0.000911526
0.000912472
0.000913516
0.000914656
0.000915887
0.000917197
0.000918564
0.000919964
0.000921362
0.000922725
0.000924015
0.000925202
0.000926265
0.000927201
0.000928032
0.000928814
0.000929643
0.00093067
0.000932098
0.000933935
0.000936069
0.000938534
0.00094134
0.00094448
0.000947926
0.000951635
0.000955551
0.000959613
0.000963752
0.000967903
0.000972002
0.00097599
0.000979816
0.000983436
0.000986817
0.000989933
0.000992765
0.0009953
0.000997535
0.000999467
0.0010011
0.00100244
0.0010035
0.00100429
0.00100483
0.00100516
0.00100531
0.00100533
0.00100527
0.00100518
0.00100511
0.00114598
0.00114608
0.00114623
0.00114644
0.00114671
0.00114707
0.00114751
0.00114801
0.00114854
0.00114912
0.00114977
0.00115049
0.00115131
0.00115224
0.00115329
0.0011545
0.00115586
0.0011574
0.00115911
0.00116101
0.00116309
0.00116533
0.00116773
0.00117026
0.00117291
0.00117566
0.00117849
0.00118139
0.00118438
0.00118748
0.00119079
0.00119442
0.00119859
0.00120315
0.00120782
0.00121262
0.00121758
0.00122266
0.00122783
0.00123305
0.00123827
0.00124344
0.00124851
0.00125344
0.00125818
0.0012627
0.00126695
0.00127092
0.00127458
0.00127792
0.00128093
0.00128361
0.00128597
0.00128799
0.0012897
0.00129111
0.00129223
0.00129308
0.00129367
0.00129403
0.00129421
0.00129424
0.00129418
0.00129409
0.00129401
0.00141159
0.0014117
0.00141186
0.00141207
0.00141236
0.00141274
0.00141321
0.00141372
0.00141428
0.00141489
0.00141556
0.00141631
0.00141715
0.00141812
0.00141922
0.00142046
0.00142187
0.00142346
0.00142522
0.00142714
0.00142924
0.00143148
0.00143384
0.00143631
0.00143885
0.00144144
0.00144407
0.00144674
0.00144946
0.00145229
0.00145531
0.00145868
0.00146261
0.00146693
0.00147134
0.0014759
0.00148061
0.00148549
0.0014905
0.00149561
0.00150079
0.00150598
0.00151112
0.00151617
0.00152107
0.00152578
0.00153025
0.00153445
0.00153836
0.00154194
0.00154519
0.00154811
0.00155068
0.00155292
0.00155482
0.00155639
0.00155766
0.00155862
0.00155931
0.00155973
0.00155995
0.00156
0.00155995
0.00155986
0.00155978
0.00166486
0.00166497
0.00166514
0.00166536
0.00166566
0.00166605
0.00166654
0.00166709
0.00166769
0.00166836
0.00166911
0.00166997
0.00167094
0.00167205
0.00167332
0.00167477
0.00167641
0.00167824
0.00168028
0.00168252
0.00168495
0.00168757
0.00169034
0.00169325
0.00169627
0.00169938
0.00170257
0.00170583
0.00170918
0.00171267
0.0017164
0.00172051
0.00172522
0.00173032
0.00173545
0.00174066
0.00174599
0.00175143
0.00175695
0.00176253
0.00176812
0.00177368
0.00177916
0.00178451
0.00178967
0.00179461
0.00179929
0.00180368
0.00180775
0.00181148
0.00181486
0.00181788
0.00182055
0.00182287
0.00182484
0.00182647
0.00182778
0.00182878
0.00182949
0.00182995
0.00183019
0.00183025
0.0018302
0.00183012
0.00183003
0.00192242
0.00192254
0.00192271
0.00192294
0.00192325
0.00192365
0.00192415
0.00192471
0.00192532
0.001926
0.00192677
0.00192765
0.00192867
0.00192983
0.00193117
0.0019327
0.00193443
0.00193638
0.00193854
0.00194092
0.00194351
0.00194628
0.00194922
0.0019523
0.00195549
0.00195877
0.00196212
0.00196554
0.00196905
0.00197271
0.00197661
0.00198091
0.00198584
0.00199115
0.00199648
0.00200189
0.00200741
0.00201306
0.0020188
0.00202462
0.00203047
0.00203631
0.00204207
0.00204772
0.00205318
0.00205843
0.00206342
0.00206811
0.00207247
0.00207648
0.00208013
0.00208342
0.00208633
0.00208887
0.00209105
0.00209287
0.00209435
0.0020955
0.00209633
0.00209688
0.00209718
0.00209727
0.00209723
0.00209715
0.00209706
0.00217474
0.00217486
0.00217504
0.00217528
0.0021756
0.00217603
0.00217656
0.00217716
0.00217783
0.00217859
0.00217945
0.00218044
0.00218157
0.00218288
0.00218439
0.0021861
0.00218804
0.00219021
0.00219262
0.00219527
0.00219813
0.0022012
0.00220444
0.00220783
0.00221135
0.00221495
0.00221863
0.00222239
0.00222624
0.00223024
0.00223449
0.00223916
0.00224447
0.00225017
0.00225585
0.00226159
0.00226744
0.00227338
0.00227942
0.00228552
0.00229165
0.00229775
0.00230378
0.00230968
0.00231539
0.00232088
0.00232609
0.00233099
0.00233555
0.00233976
0.00234359
0.00234703
0.00235009
0.00235277
0.00235506
0.00235698
0.00235855
0.00235976
0.00236065
0.00236123
0.00236156
0.00236166
0.00236163
0.00236154
0.00236146
0.00242686
0.00242699
0.00242717
0.00242742
0.00242776
0.0024282
0.00242873
0.00242934
0.00243003
0.00243081
0.00243171
0.00243274
0.00243395
0.00243534
0.00243694
0.00243878
0.00244086
0.00244319
0.00244577
0.00244861
0.00245168
0.00245497
0.00245844
0.00246208
0.00246583
0.00246968
0.0024736
0.0024776
0.0024817
0.00248594
0.00249044
0.00249536
0.00250095
0.00250693
0.00251287
0.00251888
0.00252498
0.0025312
0.00253752
0.00254391
0.00255034
0.00255675
0.00256309
0.00256931
0.00257534
0.00258114
0.00258666
0.00259187
0.00259672
0.0026012
0.0026053
0.00260899
0.00261228
0.00261517
0.00261766
0.00261977
0.00262149
0.00262285
0.00262385
0.00262453
0.00262492
0.00262506
0.00262504
0.00262496
0.00262487
0.00267515
0.00267529
0.00267547
0.00267573
0.00267609
0.00267656
0.00267713
0.00267778
0.00267853
0.00267938
0.00268037
0.00268151
0.00268284
0.00268437
0.00268614
0.00268816
0.00269044
0.002693
0.00269583
0.00269892
0.00270227
0.00270584
0.00270961
0.00271354
0.00271759
0.00272174
0.00272596
0.00273026
0.00273464
0.00273918
0.00274397
0.00274918
0.00275509
0.00276138
0.00276761
0.0027739
0.00278027
0.00278676
0.00279335
0.00280002
0.00280673
0.00281342
0.00282005
0.00282655
0.00283286
0.00283894
0.00284474
0.00285021
0.00285531
0.00286004
0.00286436
0.00286826
0.00287175
0.00287481
0.00287746
0.0028797
0.00288155
0.00288301
0.00288409
0.00288483
0.00288526
0.00288542
0.00288541
0.00288533
0.00288524
0.00292159
0.00292173
0.00292192
0.00292219
0.00292256
0.00292303
0.00292362
0.00292429
0.00292507
0.00292596
0.00292701
0.00292823
0.00292965
0.0029313
0.00293321
0.00293538
0.00293785
0.0029406
0.00294365
0.00294699
0.00295058
0.00295442
0.00295847
0.00296268
0.00296702
0.00297146
0.00297596
0.00298053
0.00298518
0.00298999
0.00299504
0.00300054
0.00300674
0.00301332
0.00301983
0.00302639
0.00303304
0.00303982
0.0030467
0.00305367
0.00306069
0.0030677
0.00307465
0.00308147
0.00308811
0.00309451
0.00310062
0.00310639
0.00311179
0.00311679
0.00312138
0.00312553
0.00312925
0.00313254
0.00313539
0.00313781
0.00313981
0.00314141
0.00314262
0.00314346
0.00314396
0.00314416
0.00314416
0.00314408
0.00314399
0.00316441
0.00316456
0.00316476
0.00316504
0.00316542
0.00316593
0.00316655
0.00316728
0.00316811
0.00316908
0.00317022
0.00317155
0.00317311
0.00317491
0.00317699
0.00317937
0.00318205
0.00318505
0.00318836
0.00319197
0.00319586
0.0032
0.00320436
0.00320889
0.00321355
0.00321829
0.0032231
0.00322797
0.00323292
0.00323801
0.00324336
0.00324915
0.00325566
0.00326254
0.00326934
0.00327618
0.00328312
0.00329018
0.00329735
0.00330463
0.00331195
0.00331928
0.00332656
0.00333371
0.00334068
0.0033474
0.00335383
0.00335991
0.00336561
0.0033709
0.00337576
0.00338017
0.00338412
0.00338762
0.00339066
0.00339326
0.00339542
0.00339715
0.00339846
0.00339938
0.00339994
0.00340017
0.00340019
0.00340011
0.00340002
0.00340453
0.00340467
0.00340488
0.00340517
0.00340557
0.00340609
0.00340673
0.00340749
0.00340836
0.00340939
0.00341061
0.00341203
0.00341371
0.00341565
0.0034179
0.00342046
0.00342336
0.00342659
0.00343016
0.00343405
0.00343823
0.00344268
0.00344735
0.00345219
0.00345717
0.00346223
0.00346736
0.00347253
0.00347777
0.00348315
0.00348878
0.00349486
0.00350168
0.00350887
0.00351597
0.00352309
0.00353032
0.00353768
0.00354516
0.00355275
0.00356041
0.00356808
0.0035757
0.0035832
0.00359052
0.00359759
0.00360435
0.00361077
0.00361679
0.00362239
0.00362754
0.00363222
0.00363643
0.00364017
0.00364344
0.00364623
0.00364857
0.00365045
0.0036519
0.00365293
0.00365356
0.00365384
0.00365387
0.0036538
0.00365371
0.00364092
0.00364107
0.00364129
0.00364159
0.00364201
0.00364256
0.00364324
0.00364404
0.00364498
0.00364609
0.0036474
0.00364894
0.00365075
0.00365286
0.0036553
0.00365807
0.0036612
0.00366469
0.00366854
0.00367272
0.00367722
0.003682
0.003687
0.00369219
0.0036975
0.0037029
0.00370835
0.00371384
0.0037194
0.00372508
0.00373102
0.0037374
0.00374453
0.00375205
0.00375944
0.00376687
0.00377439
0.00378206
0.00378986
0.00379779
0.00380579
0.00381381
0.00382179
0.00382966
0.00383734
0.00384478
0.00385191
0.00385868
0.00386504
0.00387097
0.00387642
0.0038814
0.00388588
0.00388987
0.00389336
0.00389636
0.00389888
0.00390092
0.0039025
0.00390364
0.00390434
0.00390466
0.00390472
0.00390465
0.00390456
0.00387385
0.00387401
0.00387423
0.00387454
0.00387498
0.00387554
0.00387625
0.00387709
0.00387808
0.00387926
0.00388066
0.00388231
0.00388427
0.00388654
0.00388916
0.00389215
0.00389552
0.00389927
0.00390341
0.0039079
0.00391273
0.00391784
0.00392319
0.00392873
0.0039344
0.00394014
0.00394593
0.00395175
0.00395762
0.00396361
0.00396985
0.00397654
0.003984
0.00399183
0.00399954
0.00400727
0.0040151
0.00402308
0.00403122
0.00403949
0.00404784
0.00405623
0.00406459
0.00407283
0.0040809
0.00408872
0.00409622
0.00410335
0.00411007
0.00411633
0.00412211
0.0041274
0.00413217
0.00413642
0.00414016
0.00414338
0.0041461
0.00414832
0.00415005
0.0041513
0.0041521
0.00415247
0.00415255
0.00415249
0.0041524
0.00410265
0.00410282
0.00410304
0.00410337
0.00410382
0.00410442
0.00410516
0.00410605
0.0041071
0.00410837
0.00410987
0.00411166
0.00411376
0.00411622
0.00411904
0.00412226
0.00412589
0.00412993
0.00413437
0.00413919
0.00414436
0.00414983
0.00415555
0.00416145
0.00416749
0.00417359
0.00417973
0.00418589
0.00419209
0.0041984
0.00420495
0.00421196
0.00421975
0.00422791
0.00423593
0.00424398
0.00425213
0.00426044
0.00426892
0.00427755
0.00428628
0.00429506
0.00430381
0.00431246
0.00432093
0.00432915
0.00433705
0.00434457
0.00435166
0.00435828
0.00436441
0.00437001
0.00437509
0.00437962
0.00438361
0.00438707
0.00439
0.0043924
0.00439429
0.00439568
0.00439657
0.004397
0.0043971
0.00439705
0.00439696
0.00432722
0.00432738
0.00432762
0.00432795
0.00432842
0.00432904
0.00432981
0.00433075
0.00433187
0.00433321
0.00433483
0.00433675
0.00433901
0.00434165
0.00434469
0.00434816
0.00435206
0.0043564
0.00436116
0.00436633
0.00437186
0.0043777
0.0043838
0.00439009
0.00439651
0.00440299
0.00440949
0.004416
0.00442253
0.00442917
0.00443604
0.00444336
0.00445149
0.00445999
0.00446833
0.00447669
0.00448517
0.00449382
0.00450265
0.00451165
0.00452077
0.00452994
0.00453911
0.00454817
0.00455707
0.0045657
0.00457401
0.00458194
0.00458942
0.00459642
0.0046029
0.00460885
0.00461424
0.00461907
0.00462334
0.00462705
0.0046302
0.00463281
0.00463487
0.0046364
0.0046374
0.00463789
0.00463802
0.00463798
0.0046379
0.00454707
0.00454724
0.00454748
0.00454783
0.00454831
0.00454896
0.00454977
0.00455075
0.00455194
0.00455338
0.00455511
0.00455717
0.00455961
0.00456245
0.00456572
0.00456945
0.00457364
0.00457829
0.00458339
0.00458892
0.00459483
0.00460107
0.00460757
0.00461426
0.00462107
0.00462794
0.00463483
0.0046417
0.00464858
0.00465555
0.00466275
0.00467041
0.00467887
0.00468771
0.00469637
0.00470505
0.00471386
0.00472285
0.00473205
0.00474143
0.00475095
0.00476055
0.00477015
0.00477966
0.004789
0.00479808
0.00480683
0.00481519
0.00482309
0.00483049
0.00483735
0.00484365
0.00484938
0.00485452
0.00485908
0.00486306
0.00486645
0.00486927
0.00487153
0.00487321
0.00487434
0.0048749
0.00487506
0.00487504
0.00487496
0.0047618
0.00476198
0.00476222
0.00476258
0.00476309
0.00476375
0.0047646
0.00476564
0.0047669
0.00476843
0.00477029
0.00477251
0.00477513
0.00477818
0.0047817
0.00478571
0.0047902
0.00479519
0.00480066
0.00480657
0.00481288
0.00481954
0.00482647
0.00483359
0.00484082
0.00484811
0.0048554
0.00486265
0.0048699
0.00487722
0.00488476
0.00489274
0.00490155
0.00491071
0.00491968
0.00492866
0.00493778
0.0049471
0.00495664
0.00496639
0.0049763
0.0049863
0.00499632
0.00500626
0.00501604
0.00502556
0.00503474
0.00504352
0.00505183
0.00505962
0.00506686
0.00507352
0.00507958
0.00508503
0.00508987
0.0050941
0.00509773
0.00510076
0.0051032
0.00510505
0.0051063
0.00510694
0.00510714
0.00510713
0.00510705
0.0049707
0.00497088
0.00497113
0.0049715
0.00497203
0.00497272
0.00497361
0.00497472
0.00497607
0.00497772
0.00497973
0.00498212
0.00498495
0.00498825
0.00499205
0.00499636
0.0050012
0.00500656
0.00501242
0.00501876
0.00502552
0.00503263
0.00504003
0.00504762
0.00505532
0.00506307
0.0050708
0.00507848
0.00508613
0.00509384
0.00510174
0.00511008
0.00511925
0.00512875
0.00513803
0.00514731
0.00515674
0.00516638
0.00517625
0.00518636
0.00519665
0.00520706
0.00521749
0.00522787
0.00523809
0.00524805
0.00525767
0.00526688
0.00527561
0.00528381
0.00529142
0.00529844
0.00530483
0.00531059
0.00531571
0.00532019
0.00532405
0.00532728
0.00532989
0.00533188
0.00533325
0.00533401
0.00533429
0.0053343
0.00533421
0.00517318
0.00517337
0.00517363
0.005174
0.00517455
0.00517528
0.00517624
0.00517742
0.00517889
0.00518069
0.00518288
0.00518548
0.00518856
0.00519214
0.00519625
0.00520092
0.00520615
0.00521193
0.00521825
0.00522507
0.00523233
0.00523996
0.00524789
0.00525602
0.00526425
0.00527252
0.00528074
0.0052889
0.00529701
0.00530514
0.00531345
0.0053222
0.00533176
0.00534164
0.00535127
0.00536089
0.00537067
0.00538066
0.00539092
0.00540144
0.00541216
0.00542302
0.00543393
0.00544479
0.0054555
0.00546597
0.00547609
0.00548579
0.005495
0.00550365
0.00551171
0.00551915
0.00552593
0.00553205
0.0055375
0.00554229
0.00554641
0.00554988
0.00555269
0.00555484
0.00555634
0.00555724
0.00555761
0.00555763
0.00555754
0.00537035
0.00537055
0.00537082
0.00537117
0.00537169
0.00537246
0.00537348
0.00537476
0.00537634
0.00537829
0.00538065
0.00538346
0.00538678
0.00539064
0.00539506
0.00540007
0.00540568
0.00541189
0.00541865
0.00542595
0.00543371
0.00544187
0.00545033
0.00545899
0.00546775
0.00547653
0.00548526
0.00549389
0.00550245
0.005511
0.00551972
0.00552886
0.00553883
0.00554909
0.00555908
0.00556907
0.0055792
0.00558959
0.00560026
0.00561121
0.0056224
0.00563375
0.00564518
0.00565657
0.00566783
0.00567884
0.0056895
0.00569974
0.00570947
0.00571863
0.00572717
0.00573506
0.00574228
0.0057488
0.00575462
0.00575975
0.00576418
0.00576791
0.00577096
0.00577331
0.00577496
0.00577596
0.00577638
0.00577641
0.00577633
0.00556247
0.00556268
0.00556296
0.00556328
0.00556379
0.00556459
0.00556566
0.00556701
0.00556869
0.00557076
0.00557327
0.00557626
0.00557979
0.00558389
0.0055886
0.00559393
0.0055999
0.00560649
0.00561368
0.00562142
0.00562965
0.0056383
0.00564725
0.00565641
0.00566566
0.00567492
0.00568411
0.00569318
0.00570215
0.00571111
0.00572021
0.00572972
0.00574007
0.00575071
0.00576106
0.0057714
0.00578191
0.00579268
0.00580377
0.00581516
0.00582683
0.00583869
0.00585064
0.00586259
0.0058744
0.00588597
0.0058972
0.00590799
0.00591826
0.00592794
0.00593699
0.00594535
0.005953
0.00595994
0.00596614
0.00597161
0.00597635
0.00598037
0.00598365
0.00598621
0.00598802
0.00598912
0.00598959
0.00598964
0.00598957
0.00574786
0.00574808
0.00574836
0.00574871
0.00574924
0.00575008
0.00575121
0.00575263
0.00575442
0.00575661
0.00575928
0.00576247
0.00576622
0.00577059
0.0057756
0.00578127
0.00578761
0.00579461
0.00580224
0.00581045
0.00581917
0.00582832
0.00583779
0.00584746
0.00585723
0.00586698
0.00587664
0.00588616
0.00589556
0.00590491
0.00591439
0.00592429
0.00593502
0.00594604
0.00595675
0.00596745
0.00597833
0.00598951
0.00600102
0.00601289
0.00602505
0.00603744
0.00604995
0.00606247
0.00607487
0.00608704
0.00609886
0.00611024
0.00612109
0.00613133
0.0061409
0.00614976
0.00615789
0.00616527
0.00617188
0.00617772
0.00618279
0.00618711
0.00619066
0.00619343
0.00619541
0.00619662
0.00619716
0.00619723
0.00619716
0.00592595
0.00592617
0.00592647
0.00592683
0.00592739
0.00592827
0.00592946
0.00593097
0.00593286
0.0059352
0.00593804
0.00594144
0.00594544
0.00595009
0.00595542
0.00596145
0.00596819
0.00597563
0.00598373
0.00599243
0.00600168
0.00601137
0.00602138
0.0060316
0.0060419
0.00605217
0.00606232
0.00607231
0.00608214
0.00609191
0.00610178
0.00611206
0.00612319
0.00613459
0.00614567
0.00615673
0.006168
0.00617958
0.00619153
0.00620387
0.00621655
0.00622948
0.00624257
0.00625569
0.00626871
0.0062815
0.00629396
0.00630595
0.0063174
0.00632823
0.00633837
0.00634777
0.0063564
0.00636424
0.00637129
0.00637753
0.00638296
0.00638759
0.00639142
0.00639443
0.0063966
0.00639794
0.00639854
0.00639864
0.00639857
0.0060964
0.00609663
0.00609693
0.00609731
0.00609789
0.00609882
0.00610007
0.00610167
0.00610368
0.00610616
0.00610918
0.00611279
0.00611704
0.00612198
0.00612764
0.00613405
0.0061412
0.00614908
0.00615767
0.00616689
0.00617668
0.00618692
0.0061975
0.00620828
0.00621914
0.00622995
0.00624061
0.00625108
0.00626137
0.00627155
0.00628183
0.0062925
0.00630403
0.00631582
0.00632727
0.00633871
0.00635036
0.00636236
0.00637477
0.0063876
0.00640081
0.00641431
0.006428
0.00644174
0.0064554
0.00646885
0.00648196
0.0064946
0.00650669
0.00651813
0.00652886
0.00653882
0.00654799
0.00655633
0.00656383
0.00657049
0.0065763
0.00658128
0.0065854
0.00658867
0.00659104
0.00659251
0.00659318
0.00659331
0.00659325
0.00625855
0.00625878
0.0062591
0.00625949
0.0062601
0.00626107
0.00626239
0.00626408
0.00626621
0.00626884
0.00627205
0.00627588
0.00628039
0.00628563
0.00629164
0.00629843
0.00630601
0.00631436
0.00632345
0.00633321
0.00634356
0.00635438
0.00636555
0.00637692
0.00638836
0.00639973
0.00641092
0.00642189
0.00643264
0.00644326
0.00645395
0.00646503
0.00647697
0.00648916
0.00650098
0.00651281
0.00652485
0.00653728
0.00655015
0.00656348
0.00657723
0.00659132
0.00660563
0.00662002
0.00663435
0.00664848
0.00666227
0.00667559
0.00668834
0.00670043
0.00671178
0.00672233
0.00673206
0.00674092
0.0067489
0.006756
0.00676221
0.00676754
0.00677199
0.00677552
0.00677811
0.00677973
0.00678047
0.00678063
0.00678058
0.00641187
0.00641211
0.00641244
0.00641285
0.00641349
0.0064145
0.00641589
0.00641767
0.00641992
0.00642271
0.0064261
0.00643015
0.00643493
0.00644048
0.00644684
0.00645403
0.00646204
0.00647088
0.00648049
0.0064908
0.00650173
0.00651316
0.00652493
0.00653692
0.00654895
0.0065609
0.00657264
0.00658412
0.00659535
0.00660643
0.00661754
0.00662903
0.00664139
0.00665398
0.0066662
0.00667841
0.00669086
0.00670372
0.00671706
0.00673091
0.00674523
0.00675992
0.00677488
0.00678995
0.00680498
0.00681982
0.00683433
0.00684837
0.00686183
0.0068746
0.00688661
0.00689779
0.0069081
0.00691752
0.00692601
0.00693359
0.00694023
0.00694594
0.00695072
0.00695455
0.00695737
0.00695915
0.00695998
0.00696017
0.00696013
0.00655573
0.00655597
0.00655631
0.00655673
0.0065574
0.00655846
0.00655991
0.00656179
0.00656416
0.0065671
0.00657068
0.00657496
0.00658001
0.00658587
0.00659259
0.00660018
0.00660864
0.00661797
0.00662812
0.006639
0.00665053
0.00666258
0.00667499
0.0066876
0.00670026
0.0067128
0.00672511
0.00673712
0.00674885
0.00676038
0.00677193
0.00678384
0.00679663
0.00680965
0.00682226
0.00683486
0.00684773
0.00686103
0.00687487
0.00688925
0.00690415
0.00691948
0.00693511
0.00695089
0.00696666
0.00698226
0.00699752
0.00701232
0.00702651
0.00704001
0.00705271
0.00706456
0.0070755
0.00708551
0.00709455
0.00710263
0.00710973
0.00711585
0.00712099
0.00712513
0.0071282
0.00713016
0.00713108
0.00713131
0.00713128
0.00668931
0.00668956
0.00668991
0.00669034
0.00669104
0.00669215
0.00669367
0.00669564
0.00669813
0.00670123
0.00670501
0.00670953
0.00671485
0.00672104
0.00672812
0.00673613
0.00674506
0.0067549
0.0067656
0.00677708
0.00678923
0.00680192
0.00681498
0.00682825
0.00684155
0.00685471
0.00686761
0.00688017
0.00689241
0.00690442
0.00691643
0.00692878
0.00694201
0.00695545
0.00696847
0.00698149
0.00699478
0.00700854
0.00702288
0.00703781
0.00705332
0.0070693
0.00708564
0.00710216
0.0071187
0.00713509
0.00715115
0.00716675
0.00718173
0.00719599
0.00720943
0.00722199
0.0072336
0.00724423
0.00725385
0.00726246
0.00727005
0.0072766
0.00728213
0.0072866
0.00728995
0.0072921
0.00729312
0.00729339
0.00729338
0.00681179
0.00681205
0.00681241
0.00681286
0.00681359
0.00681475
0.00681634
0.00681841
0.00682103
0.00682429
0.00682827
0.00683303
0.00683865
0.00684517
0.00685263
0.00686107
0.00687049
0.00688086
0.00689213
0.00690423
0.00691703
0.00693039
0.00694414
0.00695809
0.00697206
0.00698587
0.00699938
0.00701251
0.00702528
0.00703779
0.00705027
0.00706308
0.00707678
0.00709067
0.00710411
0.00711754
0.00713128
0.00714551
0.00716036
0.00717587
0.007192
0.00720866
0.00722573
0.00724303
0.00726037
0.00727759
0.00729449
0.00731093
0.00732674
0.00734181
0.00735603
0.00736933
0.00738165
0.00739294
0.00740319
0.00741236
0.00742047
0.00742749
0.00743343
0.00743826
0.0074419
0.00744426
0.0074454
0.00744572
0.00744572
0.00692249
0.00692275
0.00692312
0.00692359
0.00692434
0.00692555
0.00692721
0.00692937
0.00693212
0.00693555
0.00693973
0.00694473
0.00695064
0.00695749
0.00696535
0.00697423
0.00698414
0.00699506
0.00700692
0.00701966
0.00703313
0.00704718
0.00706164
0.0070763
0.00709097
0.00710545
0.0071196
0.00713333
0.00714665
0.00715969
0.00717266
0.00718596
0.00720015
0.0072145
0.00722839
0.00724226
0.00725644
0.00727115
0.00728654
0.00730263
0.00731941
0.00733678
0.0073546
0.0073727
0.00739089
0.00740897
0.00742675
0.00744406
0.00746074
0.00747666
0.00749171
0.0075058
0.00751886
0.00753086
0.00754175
0.00755154
0.00756019
0.00756771
0.00757409
0.0075793
0.00758326
0.00758584
0.00758711
0.00758747
0.0075875
0.00702043
0.0070207
0.00702108
0.00702157
0.00702235
0.0070236
0.00702533
0.0070276
0.00703048
0.00703406
0.00703844
0.0070437
0.00704989
0.00705709
0.00706534
0.00707468
0.00708509
0.00709657
0.00710905
0.00712244
0.0071366
0.00715138
0.00716658
0.00718198
0.00719737
0.00721256
0.00722738
0.00724174
0.00725565
0.00726923
0.00728273
0.00729654
0.00731125
0.0073261
0.00734045
0.00735477
0.00736942
0.00738463
0.00740056
0.00741726
0.00743471
0.00745281
0.00747142
0.00749036
0.00750942
0.00752841
0.00754711
0.00756534
0.00758293
0.00759974
0.00761566
0.00763058
0.00764443
0.00765717
0.00766876
0.00767918
0.00768842
0.00769646
0.00770331
0.00770894
0.00771324
0.00771606
0.00771746
0.00771789
0.00771793
0.00710468
0.00710495
0.00710534
0.00710585
0.00710666
0.00710796
0.00710976
0.00711212
0.00711513
0.00711888
0.00712347
0.00712897
0.00713546
0.00714301
0.00715167
0.00716146
0.00717239
0.00718445
0.00719756
0.00721163
0.00722651
0.00724204
0.00725801
0.00727418
0.00729034
0.00730626
0.00732178
0.0073368
0.00735134
0.0073655
0.00737956
0.00739391
0.00740918
0.00742456
0.00743939
0.00745418
0.00746931
0.00748503
0.00750152
0.00751885
0.00753699
0.00755585
0.00757528
0.00759509
0.00761507
0.007635
0.00765467
0.00767387
0.00769243
0.00771018
0.00772701
0.00774281
0.0077575
0.00777102
0.00778334
0.00779444
0.0078043
0.00781291
0.00782026
0.00782632
0.00783098
0.00783408
0.00783562
0.00783611
0.00783617
0.00717434
0.00717462
0.00717502
0.00717554
0.00717638
0.00717772
0.00717959
0.00718204
0.00718517
0.00718908
0.00719386
0.0071996
0.00720639
0.00721428
0.00722334
0.0072336
0.00724506
0.00725771
0.00727146
0.00728623
0.00730186
0.00731817
0.00733493
0.00735191
0.00736886
0.00738556
0.00740182
0.00741753
0.00743272
0.00744751
0.00746216
0.0074771
0.00749296
0.00750889
0.00752424
0.00753953
0.00755515
0.00757141
0.00758848
0.00760645
0.00762531
0.00764495
0.00766523
0.00768596
0.0077069
0.00772782
0.0077485
0.00776872
0.00778829
0.00780705
0.00782484
0.00784157
0.00785714
0.0078715
0.0078846
0.00789642
0.00790694
0.00791614
0.00792403
0.00793056
0.00793561
0.007939
0.00794071
0.00794126
0.00794135
0.00722822
0.0072285
0.00722891
0.00722944
0.00723031
0.0072317
0.00723363
0.00723617
0.00723942
0.00724348
0.00724846
0.00725445
0.00726153
0.00726977
0.00727924
0.00728997
0.00730197
0.00731521
0.00732963
0.00734512
0.00736152
0.00737863
0.00739623
0.00741406
0.00743185
0.00744936
0.00746639
0.00748285
0.00749874
0.00751419
0.00752949
0.00754506
0.00756155
0.00757809
0.00759398
0.00760979
0.00762593
0.00764273
0.00766041
0.00767904
0.00769864
0.00771911
0.00774028
0.00776195
0.0077839
0.00780587
0.00782761
0.00784891
0.00786955
0.00788936
0.00790818
0.00792589
0.00794241
0.00795765
0.00797158
0.00798417
0.00799539
0.00800524
0.00801369
0.00802073
0.00802621
0.00802991
0.0080318
0.00803243
0.00803255
0.00726515
0.00726544
0.00726586
0.00726641
0.0072673
0.00726873
0.00727072
0.00727334
0.00727671
0.00728093
0.00728611
0.00729233
0.0072997
0.00730829
0.00731817
0.00732938
0.00734192
0.00735578
0.00737088
0.00738712
0.00740432
0.00742228
0.00744075
0.00745946
0.00747813
0.0074965
0.00751437
0.00753161
0.00754825
0.00756442
0.00758041
0.00759667
0.00761385
0.00763104
0.00764751
0.00766387
0.00768056
0.00769793
0.00771622
0.00773555
0.00775591
0.00777722
0.00779932
0.00782198
0.00784498
0.00786804
0.00789091
0.00791335
0.00793512
0.00795604
0.00797594
0.0079947
0.00801222
0.00802841
0.00804322
0.00805662
0.0080686
0.00807912
0.00808819
0.00809576
0.0081017
0.00810575
0.00810783
0.00810855
0.0081087
0.00728402
0.00728431
0.00728473
0.0072853
0.00728621
0.00728767
0.00728971
0.00729242
0.00729589
0.00730025
0.0073056
0.00731206
0.00731971
0.00732864
0.00733893
0.00735061
0.00736371
0.00737819
0.00739399
0.00741099
0.00742902
0.00744785
0.00746723
0.00748687
0.00750647
0.00752575
0.0075445
0.00756259
0.00758003
0.00759697
0.00761371
0.00763072
0.00764867
0.00766655
0.00768366
0.0077006
0.00771787
0.00773583
0.00775476
0.00777479
0.00779594
0.00781813
0.00784118
0.00786488
0.00788897
0.00791317
0.00793721
0.00796083
0.00798379
0.00800588
0.00802692
0.00804678
0.00806535
0.00808254
0.00809828
0.00811255
0.00812532
0.00813657
0.00814629
0.00815443
0.00816087
0.00816529
0.00816759
0.0081684
0.00816858
0.00728323
0.00728352
0.00728396
0.00728453
0.00728547
0.00728696
0.00728905
0.00729183
0.00729541
0.00729991
0.00730544
0.00731213
0.00732006
0.00732934
0.00734004
0.00735221
0.00736587
0.007381
0.00739752
0.00741531
0.0074342
0.00745396
0.00747429
0.00749491
0.0075155
0.00753575
0.00755543
0.00757443
0.00759274
0.00761052
0.00762809
0.00764592
0.0076647
0.00768335
0.00770114
0.0077187
0.00773656
0.00775514
0.00777474
0.0077955
0.00781747
0.00784056
0.00786461
0.00788938
0.0079146
0.00793999
0.00796525
0.00799011
0.00801431
0.00803763
0.00805988
0.0080809
0.00810058
0.00811882
0.00813555
0.00815074
0.00816436
0.00817637
0.00818678
0.00819554
0.0082025
0.00820733
0.00820986
0.00821078
0.008211
0.00726131
0.0072616
0.00726204
0.00726263
0.00726358
0.0072651
0.00726725
0.0072701
0.00727378
0.00727842
0.00728413
0.00729104
0.00729926
0.00730889
0.00732001
0.00733267
0.00734691
0.0073627
0.00737997
0.0073986
0.00741839
0.00743911
0.00746046
0.00748212
0.00750375
0.00752504
0.00754573
0.0075657
0.00758496
0.00760366
0.00762213
0.00764087
0.00766056
0.00768006
0.00769858
0.0077168
0.00773529
0.00775452
0.00777481
0.00779633
0.00781914
0.00784317
0.00786825
0.00789413
0.00792054
0.00794717