/*--------------------------------*- C++ -*----------------------------------*\
| =========                 |                                                 |
| \\      /  F ield         | OpenFOAM: The Open Source CFD Toolbox           |
|  \\    /   O peration     | Version:  2412                                  |
|   \\  /    A nd           | Website:  www.openfoam.com                      |
|    \\/     M anipulation  |                                                 |
\*---------------------------------------------------------------------------*/
FoamFile
{
    version     2.0;
    format      ascii;
    arch        "LSB;label=32;scalar=64";
    class       surfaceScalarField;
    location    "2000";
    object      phi;
}
// * * * * * * * * * * * * * * * * * * * * * * * * * * * * * * * * * * * * * //

dimensions      [0 3 -1 0 0 0 0];

oriented        oriented;

internalField   nonuniform List<scalar> 
63919
(
2.05189e-05
-0.00120656
7.39814e-05
-0.0038778
0.000156793
-0.00700613
0.000263791
-0.0104777
0.000384008
-0.0140715
0.00050961
-0.0176314
0.000638141
-0.0212029
0.000768133
-0.0248943
0.000898602
-0.0287879
0.00102888
-0.0329495
0.00115877
-0.0374373
0.00128836
-0.0423069
0.00141816
-0.0476143
0.00154881
-0.0534179
0.00168125
-0.0597794
0.00181642
-0.0667652
0.00195539
-0.0744463
0.00209915
-0.0828996
0.00224871
-0.092208
0.00240489
-0.102461
0.00256843
-0.113756
0.00273973
-0.126196
0.00291893
-0.139893
0.00310549
-0.154965
0.00329826
-0.171536
0.00349482
-0.189735
0.00369134
-0.209693
0.00388167
-0.231542
0.00405681
-0.255404
0.00420357
-0.281389
0.00430345
-0.309586
0.00433083
-0.340041
0.00425102
-0.372748
0.00407569
-0.33418
0.00383707
-0.299528
0.0035593
-0.268455
0.00326041
-0.240623
0.00295372
-0.215703
0.00264868
-0.193392
0.00235199
-0.173412
0.0020681
-0.155512
0.00179996
-0.139468
0.00154929
-0.12508
0.00131707
-0.112169
0.00110364
-0.100578
0.000908991
-0.0901649
0.000732783
-0.0808043
0.000574581
-0.0723842
0.000433766
-0.0648045
0.000309752
-0.0579755
0.000201875
-0.0518165
0.000109568
-0.0462544
3.22492e-05
-0.0412229
-3.05275e-05
-0.0366605
-7.91744e-05
-0.03251
-0.000113942
-0.0287161
-0.000135018
-0.0252232
-0.000142457
-0.0219721
-0.00013635
-0.0188934
-0.000116991
-0.0158968
-8.56176e-05
-0.0128565
-4.9134e-05
-0.00969054
-1.96416e-05
-0.00653328
-3.45456e-06
-0.00362918
-0.0011298
1.63826e-05
-0.00122294
7.17393e-05
-0.00393315
0.000168848
-0.00710323
0.000302668
-0.0106115
0.000458384
-0.0142272
0.000624227
-0.0177973
0.000795447
-0.0213741
0.00096891
-0.0250677
0.0011425
-0.0289614
0.00131486
-0.0331219
0.00148539
-0.0376079
0.00165405
-0.0424756
0.00182131
-0.0477815
0.00198797
-0.0535845
0.00215509
-0.0599466
0.0023238
-0.0669339
0.00249532
-0.0746178
0.00267072
-0.083075
0.00285102
-0.0923883
0.00303699
-0.102647
0.00322915
-0.113948
0.00342761
-0.126395
0.00363199
-0.140097
0.00384118
-0.155174
0.00405319
-0.171748
0.00426472
-0.189946
0.00447093
-0.209899
0.00466475
-0.231736
0.0048364
-0.255575
0.00497256
-0.281526
0.00505557
-0.309669
0.00506266
-0.340048
0.00496546
-0.372651
0.00477241
-0.333987
0.00450734
-0.299263
0.00419189
-0.26814
0.00384427
-0.240275
0.00347938
-0.215338
0.00310899
-0.193022
0.00274222
-0.173045
0.00238592
-0.155156
0.00204513
-0.139127
0.00172338
-0.124758
0.00142306
-0.111869
0.00114561
-0.100301
0.000891844
-0.0899111
0.00066199
-0.0805744
0.000455986
-0.0721782
0.000273468
-0.064622
0.000113978
-0.057816
-2.30558e-05
-0.0516794
-0.000138157
-0.0461393
-0.000231837
-0.0411292
-0.00030447
-0.0365879
-0.000356319
-0.0324582
-0.000387419
-0.028685
-0.000397593
-0.0252131
-0.000386416
-0.0219833
-0.000353338
-0.0189264
-0.000298055
-0.0159521
-0.000222045
-0.0129325
-0.000136952
-0.00977563
-6.42853e-05
-0.00660595
-1.70011e-05
-0.00367646
-0.0011468
1.75021e-05
-0.00124044
6.9312e-05
-0.00398496
0.00015561
-0.00718952
0.000271637
-0.0107276
0.000403916
-0.0143595
0.000542413
-0.0179358
0.000683721
-0.0215154
0.000825862
-0.0252099
0.000967592
-0.0291032
0.00110822
-0.0332625
0.00124767
-0.0377473
0.0013863
-0.0426142
0.00152491
-0.0479202
0.0016645
-0.0537241
0.00180625
-0.0600883
0.00195137
-0.067079
0.00210112
-0.0747675
0.0022567
-0.0832306
0.00241927
-0.0925508
0.00258981
-0.102818
0.00276915
-0.114127
0.00295778
-0.126583
0.00315575
-0.140295
0.00336245
-0.155381
0.00357639
-0.171961
0.00379471
-0.190164
0.00401282
-0.210118
0.00422364
-0.231946
0.00441683
-0.255769
0.00457768
-0.281686
0.00468599
-0.309777
0.00471463
-0.340077
0.00462832
-0.372564
0.00443675
-0.333795
0.00417205
-0.298998
0.00386009
-0.267828
0.00352119
-0.239936
0.00317091
-0.214988
0.00282076
-0.192672
0.0024791
-0.172703
0.00215171
-0.154828
0.00184247
-0.138818
0.00155379
-0.124469
0.00128702
-0.111602
0.00104269
-0.100056
0.000820844
-0.0896893
0.000621085
-0.0803747
0.00044283
-0.0719999
0.000285319
-0.0644645
0.000147776
-0.0576785
2.93989e-05
-0.0515611
-7.05067e-05
-0.0460394
-0.000152558
-0.0410471
-0.000217184
-0.0365233
-0.000264657
-0.0324107
-0.000295019
-0.0286546
-0.000308116
-0.0252
-0.000303527
-0.0219879
-0.000280629
-0.0189493
-0.00023881
-0.0159939
-0.000178647
-0.0129927
-0.000109365
-0.00984491
-4.99069e-05
-0.0066654
-1.22844e-05
-0.00371408
-0.00115909
1.74106e-05
-0.00125785
7.11794e-05
-0.00403873
0.000161643
-0.00727999
0.000283095
-0.010849
0.000421455
-0.0144979
0.000566429
-0.0180808
0.000714387
-0.0216634
0.000863286
-0.0253588
0.00101199
-0.0292519
0.00115998
-0.0334105
0.00130731
-0.0378946
0.00145446
-0.0427614
0.00160228
-0.048068
0.00175178
-0.0538736
0.00190415
-0.0602407
0.00206059
-0.0672355
0.00222232
-0.0749293
0.00239049
-0.0833987
0.00256616
-0.0927265
0.00275018
-0.103002
0.0029432
-0.11432
0.00314548
-0.126785
0.00335683
-0.140507
0.00357631
-0.1556
0.00380208
-0.172187
0.00403095
-0.190393
0.004258
-0.210345
0.00447589
-0.232164
0.0046742
-0.255967
0.00483843
-0.281851
0.00494898
-0.309887
0.00498006
-0.340108
0.00489884
-0.372483
0.0047125
-0.333609
0.00445062
-0.298736
0.00413805
-0.267515
0.00379487
-0.239593
0.00343681
-0.21463
0.00307585
-0.192311
0.00272089
-0.172348
0.00237835
-0.154486
0.00205267
-0.138492
0.0017468
-0.124164
0.00146254
-0.111318
0.0012008
-0.0997946
0.000961907
-0.0894504
0.000745711
-0.0801585
0.000551789
-0.071806
0.000379503
-0.0642922
0.00022815
-0.0575271
9.69721e-05
-0.0514299
-1.4724e-05
-0.0459277
-0.000107569
-0.0409543
-0.000182031
-0.0364488
-0.000238418
-0.0323543
-0.000276806
-0.0286162
-0.000297037
-0.0251797
-0.000298629
-0.0219863
-0.000280793
-0.0189672
-0.000242618
-0.0160321
-0.000184264
-0.0130511
-0.000114741
-0.00991444
-5.36337e-05
-0.00672651
-1.38153e-05
-0.0037539
-0.0011729
1.79375e-05
-0.00127579
7.23247e-05
-0.00409313
0.000163191
-0.00737085
0.000284644
-0.0109705
0.000421871
-0.0146351
0.000564448
-0.0182233
0.00070901
-0.0218079
0.000853776
-0.0255035
0.000997837
-0.0293959
0.00114095
-0.0335536
0.00128343
-0.0380371
0.00142596
-0.0429039
0.00156951
-0.0482115
0.00171518
-0.0540193
0.00186423
-0.0603897
0.00201793
-0.0673892
0.00217758
-0.0750889
0.00234441
-0.0835656
0.00251958
-0.0929017
0.00270406
-0.103186
0.00289863
-0.114515
0.0031037
-0.126991
0.00331925
-0.140722
0.0035445
-0.155825
0.00377775
-0.17242
0.00401592
-0.190632
0.00425408
-0.210583
0.00448478
-0.232395
0.0046972
-0.256179
0.00487615
-0.28203
0.00500086
-0.310012
0.00504378
-0.340151
0.00496945
-0.372409
0.00478371
-0.333423
0.00451873
-0.298471
0.00420113
-0.267198
0.00385219
-0.239244
0.00348839
-0.214266
0.00312213
-0.191944
0.00276253
-0.171989
0.00241605
-0.154139
0.00208711
-0.138163
0.00177855
-0.123855
0.00149208
-0.111032
0.00122851
-0.099531
0.000988037
-0.0892099
0.00077043
-0.0799409
0.000575179
-0.0716107
0.000401578
-0.0641186
0.000248858
-0.0573744
0.000116211
-0.0512973
2.89075e-06
-0.0458144
-9.17762e-05
-0.0408596
-0.000168305
-0.0363723
-0.000227032
-0.0322956
-0.000268005
-0.0285752
-0.000290945
-0.0251568
-0.000295194
-0.0219821
-0.000279752
-0.0189826
-0.000243472
-0.0160684
-0.000186155
-0.0131084
-0.00011642
-0.00998417
-5.43786e-05
-0.00678856
-1.38523e-05
-0.00379443
-0.00118676
1.81623e-05
-0.00129395
7.36131e-05
-0.00414858
0.00016627
-0.00746351
0.000289757
-0.011094
0.000428806
-0.0147741
0.000572898
-0.0183674
0.000718733
-0.0219537
0.000864645
-0.0256495
0.00100987
-0.0295411
0.0011543
-0.0336981
0.00129837
-0.0381812
0.00144287
-0.0430484
0.00158891
-0.0483575
0.00173769
-0.0541681
0.00189056
-0.0605426
0.00204883
-0.0675475
0.00221387
-0.075254
0.00238691
-0.0837386
0.00256915
-0.0930839
0.00276157
-0.103379
0.00296495
-0.114718
0.00317969
-0.127205
0.00340569
-0.140948
0.00364215
-0.156062
0.00388725
-0.172666
0.00413778
-0.190882
0.00438862
-0.210834
0.00463205
-0.232638
0.00485696
-0.256404
0.00504775
-0.28222
0.00518317
-0.310148
0.00523507
-0.340203
0.00516742
-0.372341
0.0049842
-0.33324
0.00471816
-0.298205
0.00439659
-0.266876
0.00404138
-0.238889
0.00366958
-0.213894
0.0032941
-0.191569
0.00292444
-0.171619
0.00256741
-0.153782
0.00222769
-0.137824
0.00190835
-0.123536
0.00161123
-0.110734
0.00133727
-0.0992571
0.00108676
-0.0889594
0.000859507
-0.0797136
0.000655051
-0.0714063
0.000472702
-0.0639362
0.000311689
-0.0572134
0.000171204
-0.0511568
5.04899e-05
-0.0456937
-5.11325e-05
-0.040758
-0.000134184
-0.0362892
-0.000198998
-0.0322308
-0.000245639
-0.0285286
-0.000273851
-0.0251286
-0.000282993
-0.0219729
-0.000272025
-0.0189936
-0.000239631
-0.0161008
-0.000185231
-0.0131628
-0.00011695
-0.0100525
-5.5102e-05
-0.00685041
-1.41823e-05
-0.00383535
-0.00120094
1.86167e-05
-0.00131257
7.51488e-05
-0.00420511
0.000169233
-0.0075576
0.000294039
-0.0112188
0.000433701
-0.0149138
0.000577646
-0.0185114
0.00072272
-0.0220988
0.000867517
-0.0257943
0.00101158
-0.0296852
0.00115508
-0.0338415
0.0012986
-0.0383247
0.00144307
-0.0431929
0.00158967
-0.0485041
0.00173967
-0.0543181
0.00189447
-0.0606974
0.00205544
-0.0677084
0.00222397
-0.0754225
0.00240136
-0.083916
0.00258884
-0.0932714
0.00278743
-0.103577
0.00299798
-0.114929
0.00322092
-0.127428
0.00345621
-0.141183
0.00370305
-0.156309
0.00395964
-0.172922
0.0042227
-0.191145
0.004487
-0.211098
0.00474459
-0.232896
0.00498396
-0.256644
0.00518891
-0.282425
0.00533731
-0.310296
0.00539978
-0.340265
0.00533863
-0.37228
0.00515626
-0.333058
0.00488702
-0.297936
0.0045595
-0.266549
0.00419659
-0.238526
0.0038161
-0.213514
0.00343144
-0.191184
0.00305252
-0.17124
0.00268637
-0.153416
0.00233784
-0.137475
0.00201008
-0.123208
0.00170496
-0.110429
0.00142344
-0.0989755
0.0011658
-0.0887018
0.000931834
-0.0794797
0.000721032
-0.0711955
0.000532679
-0.0637479
0.000365969
-0.0570466
0.000220056
-0.0510109
9.41433e-05
-0.0455678
-1.24887e-05
-0.0406514
-0.000100405
-0.0362013
-0.000169996
-0.0321612
-0.000221385
-0.0284772
-0.000254385
-0.0250956
-0.000268356
-0.0219589
-0.00026214
-0.0189998
-0.000234124
-0.0161288
-0.000183236
-0.0132137
-0.00011687
-0.0101188
-5.54417e-05
-0.00691183
-1.43173e-05
-0.00387647
-0.00121526
1.90776e-05
-0.00133165
7.70192e-05
-0.00426306
0.00017323
-0.00765381
0.000300363
-0.0113459
0.000441837
-0.0150553
0.000586963
-0.0186565
0.000732779
-0.0222446
0.000878067
-0.0259395
0.00102253
-0.0298297
0.0011665
-0.0339855
0.00131074
-0.0384689
0.00145636
-0.0433385
0.00160463
-0.0486524
0.00175695
-0.0544704
0.00191479
-0.0608552
0.00207958
-0.0678732
0.00225276
-0.0755957
0.0024357
-0.0840989
0.00262965
-0.0934653
0.00283571
-0.103783
0.00305472
-0.115148
0.00328717
-0.127661
0.00353302
-0.141429
0.00379148
-0.156567
0.00406067
-0.173191
0.00433724
-0.191422
0.00461578
-0.211376
0.00488807
-0.233168
0.00514219
-0.256898
0.00536136
-0.282645
0.00552263
-0.310457
0.00559555
-0.340338
0.00554104
-0.372225
0.00535977
-0.332876
0.00508742
-0.297663
0.00475368
-0.266215
0.0043824
-0.238155
0.00399209
-0.213124
0.00359677
-0.190789
0.00320674
-0.17085
0.00282936
-0.153039
0.00246971
-0.137115
0.00213108
-0.122869
0.00181547
-0.110114
0.00152389
-0.098684
0.00125664
-0.0884345
0.00101354
-0.0792366
0.000794064
-0.070976
0.000597486
-0.0635513
0.000422969
-0.0568721
0.000269644
-0.0508575
0.000136687
-0.0454348
2.33554e-05
-0.040538
-7.09311e-05
-0.036107
-0.000146559
-0.0320856
-0.000203627
-0.0284201
-0.000241886
-0.0250573
-0.000260614
-0.0219402
-0.000258532
-0.0190019
-0.000233827
-0.0161535
-0.000184998
-0.0132625
-0.000119017
-0.0101848
-5.68485e-05
-0.006974
-1.47558e-05
-0.00391857
-0.00123001
1.94225e-05
-0.00135107
7.82554e-05
-0.00432189
0.000175646
-0.0077512
0.000303803
-0.0114741
0.000445793
-0.0151973
0.000591013
-0.0188017
0.000736642
-0.0223903
0.000881655
-0.0260846
0.00102596
-0.029974
0.00117007
-0.0341296
0.00131492
-0.0386138
0.00146171
-0.0434853
0.00161181
-0.0488025
0.00176668
-0.0546253
0.00192782
-0.0610163
0.00209673
-0.0680421
0.00227489
-0.0757738
0.00246371
-0.0842878
0.00266448
-0.0936661
0.00287835
-0.103997
0.00310622
-0.115376
0.00334861
-0.127903
0.0036055
-0.141686
0.0038761
-0.156838
0.00415851
-0.173474
0.0044493
-0.191712
0.00474288
-0.21167
0.00503077
-0.233456
0.0053006
-0.257168
0.00553495
-0.282879
0.00570996
-0.310632
0.00579394
-0.340422
0.0057462
-0.372178
0.00556573
-0.332696
0.00528976
-0.297387
0.00494929
-0.265875
0.00456921
-0.237775
0.00416883
-0.212723
0.00376275
-0.190383
0.00336172
-0.170449
0.00297338
-0.15265
0.00260302
-0.136745
0.00225406
-0.12252
0.00192857
-0.109788
0.00162761
-0.098383
0.0013515
-0.0881584
0.00110005
-0.0789851
0.000872721
-0.0707487
0.000668752
-0.0633474
0.000487279
-0.0566907
0.000327394
-0.0506977
0.000188231
-0.0452956
6.90036e-05
-0.0404188
-3.09169e-05
-0.0360071
-0.000111962
-0.0320045
-0.000174278
-0.0283578
-0.000217656
-0.025014
-0.000241405
-0.0219165
-0.000244247
-0.0189991
-0.000224295
-0.0161734
-0.000179799
-0.013307
-0.000116971
-0.0102476
-5.63265e-05
-0.00703465
-1.47017e-05
-0.00396019
-0.00124471
1.99696e-05
-0.00137104
8.03599e-05
-0.00438229
0.000179994
-0.00785083
0.000310479
-0.0116046
0.000454062
-0.0153408
0.000600082
-0.0189477
0.000746006
-0.0225362
0.000891104
-0.0262297
0.00103553
-0.0301184
0.00118001
-0.0342741
0.00132563
-0.0387594
0.00147371
-0.0436334
0.00162574
-0.0489545
0.00178323
-0.0547828
0.00194777
-0.0611809
0.0021209
-0.0682153
0.00230416
-0.0759571
0.002499
-0.0844826
0.00270679
-0.0938739
0.00292872
-0.104219
0.00316572
-0.115613
0.00341838
-0.128156
0.00368669
-0.141954
0.00396987
-0.157121
0.00426599
-0.17377
0.0045715
-0.192018
0.00488064
-0.211979
0.00518463
-0.23376
0.00547066
-0.257454
0.00572062
-0.283129
0.00590971
-0.310821
0.00600496
-0.340517
0.00596405
-0.372137
0.00578423
-0.332516
0.00550429
-0.297107
0.00515655
-0.265527
0.00476695
-0.237385
0.00435565
-0.212312
0.00393786
-0.189965
0.00352479
-0.170036
0.00312442
-0.15225
0.00274225
-0.136363
0.00238186
-0.12216
0.00204541
-0.109452
0.00173401
-0.0980716
0.00144801
-0.0878724
0.0011872
-0.0787243
0.000951042
-0.0705125
0.000738752
-0.0631351
0.00054943
-0.0565013
0.000382128
-0.0505304
0.000235934
-0.0451494
0.000110022
-0.0402929
3.72085e-06
-0.0359008
-8.34349e-05
-0.0319174
-0.000151616
-0.0282896
-0.000200612
-0.024965
-0.000229692
-0.0218874
-0.000237454
-0.0189913
-0.00022174
-0.0161891
-0.000180249
-0.0133485
-0.000118548
-0.0103093
-5.75654e-05
-0.00709563
-1.51106e-05
-0.00400265
-0.00125982
2.02876e-05
-0.00139133
8.15142e-05
-0.00444351
0.000182238
-0.00795156
0.000313629
-0.011736
0.000457655
-0.0154849
0.000603809
-0.0190939
0.000749715
-0.0226821
0.000894815
-0.0263748
0.00103945
-0.030263
0.0011845
-0.0344191
0.00133119
-0.0389061
0.00148094
-0.0437831
0.00163531
-0.0491089
0.00179588
-0.0549434
0.00196429
-0.0613493
0.00214213
-0.0683931
0.002331
-0.076146
0.0025324
-0.084684
0.00274774
-0.0940892
0.00297828
-0.10445
0.00322501
-0.11586
0.00348854
-0.128419
0.0037689
-0.142235
0.00406532
-0.157417
0.00437582
-0.17408
0.00469677
-0.192339
0.00502222
-0.212305
0.00534309
-0.234081
0.00564608
-0.257757
0.00591239
-0.283395
0.00611621
-0.311025
0.00622322
-0.340624
0.00618936
-0.372103
0.00601015
-0.332337
0.00572601
-0.296823
0.00537069
-0.265171
0.00497125
-0.236986
0.00454871
-0.211889
0.00411893
-0.189535
0.00369359
-0.169611
0.00328101
-0.151837
0.0028869
-0.135969
0.002515
-0.121788
0.00216757
-0.109104
0.00184574
-0.0977498
0.00154989
-0.0875765
0.00127982
-0.0784542
0.00103496
-0.0702676
0.000814492
-0.0629146
0.000617491
-0.0563043
0.000442968
-0.0503558
0.00028997
-0.0449964
0.00015763
-0.0401606
4.52302e-05
-0.0357884
-4.77387e-05
-0.0318244
-0.000121492
-0.0282159
-0.000175861
-0.0249106
-0.000210145
-0.0218531
-0.000222951
-0.0189785
-0.000212063
-0.0162
-0.000174957
-0.0133856
-0.00011647
-0.0103678
-5.70664e-05
-0.00715504
-1.50727e-05
-0.00404464
-0.0012749
2.08087e-05
-0.00141214
8.34731e-05
-0.00450618
0.000186187
-0.00805427
0.000319509
-0.0118693
0.000464695
-0.01563
0.000611292
-0.0192405
0.00075725
-0.0228281
0.000902311
-0.0265198
0.00104707
-0.0304078
0.00119259
-0.0345647
0.00134025
-0.0390538
0.00149159
-0.0439345
0.00164823
-0.0492655
0.00181185
-0.055107
0.00198413
-0.0615216
0.00216672
-0.0685757
0.00236126
-0.0763405
0.00256933
-0.0848921
0.00279238
-0.0943123
0.00303173
-0.104689
0.00328843
-0.116116
0.00356313
-0.128694
0.0038559
-0.142528
0.00416596
-0.157727
0.0044913
-0.174406
0.00482819
-0.192676
0.0051705
-0.212647
0.00550881
-0.234419
0.00582935
-0.258077
0.00611255
-0.283678
0.00633157
-0.311244
0.00645069
-0.340743
0.006424
-0.372076
0.00624524
-0.332158
0.00595656
-0.296535
0.00559316
-0.264808
0.00518327
-0.236576
0.00474881
-0.211455
0.00430633
-0.189093
0.00386801
-0.169172
0.00344249
-0.151412
0.00303574
-0.135562
0.00265166
-0.121404
0.00229258
-0.108745
0.00195971
-0.0974169
0.00165342
-0.0872703
0.00137353
-0.0781744
0.00111942
-0.0700135
0.000890272
-0.0626855
0.000685099
-0.0560992
0.000502876
-0.0501736
0.000342606
-0.0448362
0.000203374
-0.0400213
8.44193e-05
-0.0356694
-1.48106e-05
-0.0317252
-9.45682e-05
-0.0281361
-0.000154708
-0.0248505
-0.000194524
-0.0218133
-0.00021256
-0.0189605
-0.000206411
-0.0162062
-0.000173095
-0.0134189
-0.00011671
-0.0104242
-5.77432e-05
-0.007214
-1.5353e-05
-0.00408703
-0.00129025
2.11406e-05
-0.00143328
8.46802e-05
-0.00456972
0.000188518
-0.00815811
0.00032275
-0.0120035
0.00046834
-0.0157756
0.000615031
-0.0193872
0.000760977
-0.022974
0.00090612
-0.026665
0.00105123
-0.0305529
0.00119753
-0.034711
0.00134651
-0.0392027
0.00149981
-0.0440878
0.00165911
-0.0494248
0.00182616
-0.055274
0.00200269
-0.0616981
0.00219042
-0.0687635
0.00239104
-0.0765411
0.00260618
-0.0851072
0.00283738
-0.0945435
0.00308599
-0.104938
0.00335313
-0.116383
0.0036395
-0.12898
0.00394521
-0.142833
0.00426949
-0.158052
0.00461028
-0.174747
0.00496377
-0.193029
0.00532363
-0.213007
0.00568011
-0.234776
0.00601892
-0.258416
0.00631972
-0.283979
0.00655458
-0.311479
0.00668628
-0.340875
0.00666703
-0.372057
0.00648871
-0.33198
0.00619527
-0.296241
0.00582345
-0.264436
0.00540269
-0.236155
0.00495588
-0.211008
0.00450026
-0.188637
0.0040485
-0.168721
0.00360964
-0.150973
0.00318986
-0.135142
0.00279323
-0.121007
0.00242218
-0.108374
0.00207797
-0.0970727
0.00176099
-0.0869533
0.00147104
-0.0778844
0.00120751
-0.06975
0.000969541
-0.0624475
0.000756109
-0.0558857
0.000566149
-0.0499836
0.000398618
-0.0446686
0.000252553
-0.0398753
0.000127143
-0.035544
2.17847e-05
-0.0316198
-6.38249e-05
-0.0280505
-0.000129585
-0.0247847
-0.000174826
-0.021768
-0.000198098
-0.0189372
-0.00019693
-0.0162073
-0.00016808
-0.0134477
-0.000114903
-0.0104774
-5.74382e-05
-0.00727147
-1.53794e-05
-0.00412909
-0.00130563
2.16262e-05
-0.0014549
8.64754e-05
-0.00463457
0.000192058
-0.00826369
0.000327867
-0.0121393
0.000474267
-0.015922
0.000621158
-0.0195341
0.000767037
-0.0231199
0.000912142
-0.0268101
0.00105748
-0.0306982
0.00120444
-0.0348579
0.00135465
-0.0393529
0.00150983
-0.0442429
0.00167177
-0.0495868
0.00184226
-0.0554445
0.00202308
-0.0618789
0.00221602
-0.0689564
0.00242283
-0.0767479
0.0026452
-0.0853296
0.00288473
-0.094783
0.00314284
-0.105196
0.00342071
-0.116661
0.0037191
-0.129279
0.00403814
-0.143152
0.00437708
-0.158391
0.00473385
-0.175103
0.0051045
-0.1934
0.00548251
-0.213385
0.00585782
-0.235151
0.00621556
-0.258774
0.0065346
-0.284298
0.00678586
-0.31173
0.00693058
-0.34102
0.00691896
-0.372045
0.00674099
-0.331802
0.0064425
-0.295943
0.00606181
-0.264056
0.00562967
-0.235723
0.00516993
-0.210548
0.00470058
-0.188168
0.00423482
-0.168255
0.00378205
-0.15052
0.00334873
-0.134709
0.00293906
-0.120598
0.00255558
-0.107991
0.00219959
-0.0967167
0.00187152
-0.0866252
0.00157114
-0.077584
0.00129783
-0.0694767
0.00105068
-0.0622003
0.000828647
-0.0556637
0.000630609
-0.0497856
0.000455479
-0.0444935
0.000302244
-0.039722
0.000170041
-0.0354118
5.82203e-05
-0.031508
-3.35683e-05
-0.0279587
-0.00010526
-0.024713
-0.000156209
-0.0217171
-0.00018494
-0.0189084
-0.000188863
-0.0162034
-0.000164373
-0.0134722
-0.00011405
-0.0105277
-5.76582e-05
-0.00732786
-1.55581e-05
-0.00417119
-0.00132119
2.19704e-05
-0.00147687
8.77171e-05
-0.00470032
0.000194414
-0.00837039
0.000331064
-0.012276
0.000477738
-0.0160687
0.000624587
-0.0196809
0.000770368
-0.0232657
0.000915544
-0.0269552
0.0010613
-0.030844
0.00120918
-0.0350058
0.00136091
-0.0395047
0.00151829
-0.0444003
0.00168317
-0.0497517
0.00185741
-0.0556188
0.00204284
-0.0620643
0.00224132
-0.0691549
0.00245466
-0.0769613
0.0026846
-0.0855595
0.00293282
-0.0950312
0.00320083
-0.105464
0.00348985
-0.11695
0.0038007
-0.12959
0.00413359
-0.143485
0.00448775
-0.158745
0.00486109
-0.175477
0.00524956
-0.193788
0.00564645
-0.213782
0.00604132
-0.235546
0.00641876
-0.259151
0.0067568
-0.284636
0.00702515
-0.311999
0.00718344
-0.341178
0.00717974
-0.372042
0.00700213
-0.331624
0.00669837
-0.295639
0.00630845
-0.263666
0.00586447
-0.235279
0.00539129
-0.210075
0.00490769
-0.187684
0.00442742
-0.167775
0.00396026
-0.150053
0.00351292
-0.134262
0.00308978
-0.120174
0.00269348
-0.107594
0.00232537
-0.0963486
0.00198589
-0.0862857
0.00167481
-0.0772729
0.00139148
-0.0691934
0.00113495
-0.0619438
0.000904151
-0.0554329
0.000697903
-0.0495794
0.00051507
-0.0443107
0.000354591
-0.0395616
0.000215552
-0.0352728
9.72494e-05
-0.0313897
-7.19637e-07
-0.0278608
-7.83432e-05
-0.0246354
-0.000135014
-0.0216604
-0.000169277
-0.0188742
-0.000178483
-0.0161942
-0.000158771
-0.013492
-0.000111965
-0.0105745
-5.72948e-05
-0.00738253
-1.5588e-05
-0.0042129
-0.00133677
2.23971e-05
-0.00149927
8.92586e-05
-0.00476718
0.000197352
-0.00847848
0.00033511
-0.0124137
0.000482146
-0.0162157
0.000628878
-0.0198277
0.000774417
-0.0234112
0.00091951
-0.0271003
0.00106556
-0.03099
0.00121425
-0.0351545
0.00136744
-0.0396579
0.001527
-0.0445599
0.00169485
-0.0499195
0.0018729
-0.0557968
0.00206306
-0.0622545
0.00226723
-0.069359
0.00248728
-0.0771813
0.00272503
-0.0857973
0.00298223
-0.0952884
0.00326045
-0.105742
0.003561
-0.117251
0.00388476
-0.129913
0.00423197
-0.143832
0.00460188
-0.159115
0.00499238
-0.175867
0.00539932
-0.194195
0.00581577
-0.214198
0.00623094
-0.235961
0.00662884
-0.259549
0.00698662
-0.284994
0.00727275
-0.312285
0.00744514
-0.34135
0.00744968
-0.372046
0.00727241
-0.331447
0.00696313
-0.29533
0.00656359
-0.263266
0.00610726
-0.234823
0.00562012
-0.209588
0.00512172
-0.187186
0.0046264
-0.167279
0.00414434
-0.149571
0.00368252
-0.1338
0.00324549
-0.119737
0.00283597
-0.107185
0.00245538
-0.095968
0.00210414
-0.0859345
0.00178204
-0.0769508
0.00148838
-0.0688997
0.00122218
-0.0616776
0.000982323
-0.055193
0.000767586
-0.0493646
0.00057678
-0.0441199
0.000408793
-0.0393936
0.000262655
-0.0351266
0.000137611
-0.0312646
3.32049e-05
-0.0277564
-5.06002e-05
-0.0245516
-0.000113236
-0.0215978
-0.000153255
-0.0188342
-0.000167943
-0.0161795
-0.000153153
-0.0135067
-0.000109941
-0.0106177
-5.70091e-05
-0.00743546
-1.5651e-05
-0.00425425
-0.00135243
2.27159e-05
-0.00152199
9.038e-05
-0.00483485
0.000199388
-0.00858749
0.000337694
-0.012552
0.00048467
-0.0163627
0.00063106
-0.0199741
0.000776286
-0.0235564
0.000921336
-0.0272454
0.00106779
-0.0311365
0.00121746
-0.0353042
0.0013723
-0.0398127
0.00153426
-0.0447219
0.00170532
-0.0500906
0.00188744
-0.0559789
0.0020826
-0.0624497
0.00229274
-0.0695692
0.00251982
-0.0774084
0.00276572
-0.0860432
0.00303226
-0.095555
0.00332109
-0.106031
0.00363359
-0.117563
0.00397071
-0.13025
0.00433274
-0.144195
0.00471897
-0.159501
0.00512725
-0.176275
0.00555335
-0.194621
0.00599012
-0.214635
0.0064264
-0.236397
0.00684559
-0.259968
0.00722395
-0.285372
0.00752863
-0.312589
0.00771576
-0.341537
0.00772893
-0.372059
0.00755207
-0.33127
0.00723709
-0.295015
0.00682754
-0.262857
0.00635839
-0.234354
0.00585672
-0.209086
0.00534295
-0.186672
0.004832
-0.166768
0.00433449
-0.149073
0.00385768
-0.133323
0.00340629
-0.119286
0.00298315
-0.106762
0.0025897
-0.0955746
0.00222641
-0.0855712
0.001893
-0.0766174
0.00158878
-0.0685955
0.00131272
-0.0614016
0.00106362
-0.0549439
0.000840241
-0.0491412
0.000641324
-0.043921
0.000465701
-0.039218
0.000312347
-0.0349733
0.000180448
-0.0311327
6.94944e-05
-0.0276454
-2.06066e-05
-0.0244615
-8.93352e-05
-0.0215291
-0.000135272
-0.0187882
-0.000155668
-0.0161591
-0.000146148
-0.0135163
-0.000107018
-0.0106569
-5.63046e-05
-0.00748617
-1.56092e-05
-0.00429495
-0.00136803
2.30497e-05
-0.00154504
9.15409e-05
-0.00490334
0.000201466
-0.00869742
0.00034028
-0.0126909
0.000487068
-0.0165095
0.000632937
-0.0201199
0.000777674
-0.0237012
0.000922536
-0.0273903
0.00106929
-0.0312832
0.0012199
-0.0354548
0.00137638
-0.0399692
0.00154079
-0.0448863
0.00171514
-0.0502649
0.00190146
-0.0561653
0.00210178
-0.06265
0.00231811
-0.0697855
0.00255245
-0.0776427
0.00280678
-0.0862975
0.00308298
-0.0958312
0.00338278
-0.106331
0.00370764
-0.117888
0.00405859
-0.130601
0.00443596
-0.144572
0.00483909
-0.159904
0.00526579
-0.176702
0.00571174
-0.195067
0.00616959
-0.215093
0.00662779
-0.236856
0.00706912
-0.260409
0.00746891
-0.285772
0.00779293
-0.312913
0.00799547
-0.34174
0.00801768
-0.372081
0.00784128
-0.331094
0.00752041
-0.294694
0.00710051
-0.262437
0.00661805
-0.233871
0.00610131
-0.20857
0.00557159
-0.186142
0.00504445
-0.166241
0.00453095
-0.14856
0.00403864
-0.132831
0.00357242
-0.11882
0.00313524
-0.106325
0.00272858
-0.0951679
0.0023529
-0.0851955
0.00200792
-0.0762725
0.00169289
-0.0682805
0.00140674
-0.0611154
0.00114822
-0.0546854
0.000916005
-0.048909
0.000708786
-0.0437137
0.000525332
-0.0390345
0.000364558
-0.0348125
0.000225594
-0.0309938
0.000107869
-0.0275277
1.12357e-05
-0.0243648
-6.38368e-05
-0.021454
-0.000115957
-0.0187361
-0.000142343
-0.0161328
-0.000138389
-0.0135202
-0.000103652
-0.0106916
-5.5429e-05
-0.0075344
-1.55362e-05
-0.00433484
-0.00138357
2.3287e-05
-0.00156833
9.23281e-05
-0.00497238
0.000202746
-0.00880784
0.000341593
-0.0128297
0.000487816
-0.0166557
0.000632932
-0.020265
0.000777074
-0.0238453
0.000921744
-0.0275349
0.00106888
-0.0314304
0.00122055
-0.0356065
0.00137886
-0.0401275
0.00154592
-0.0450533
0.00172379
-0.0504428
0.00191456
-0.056356
0.00212031
-0.0628557
0.00234309
-0.0700083
0.002585
-0.0778846
0.00284807
-0.0865606
0.00313426
-0.0961173
0.00344539
-0.106642
0.00378301
-0.118226
0.00414822
-0.130967
0.00454143
-0.144965
0.00496201
-0.160325
0.00540776
-0.177148
0.00587428
-0.195534
0.006354
-0.215572
0.00683498
-0.237337
0.00729937
-0.260874
0.00772148
-0.286194
0.00806571
-0.313258
0.00828434
-0.341959
0.00831604
-0.372113
0.0081402
-0.330918
0.00781324
-0.294367
0.00738259
-0.262006
0.00688632
-0.233375
0.00635394
-0.208037
0.00580766
-0.185596
0.00526373
-0.165697
0.00473365
-0.14803
0.00422528
-0.132322
0.00374375
-0.118338
0.00329208
-0.105873
0.00287182
-0.0947476
0.00248344
-0.0848071
0.00212663
-0.0759157
0.0018006
-0.0679544
0.00150421
-0.060819
0.00123616
-0.0544174
0.000995045
-0.0486679
0.000779488
-0.0434982
0.000588182
-0.0388432
0.000419968
-0.0346443
0.000273902
-0.0308477
0.000149342
-0.0274031
4.6067e-05
-0.0242616
-3.55188e-05
-0.0213724
-9.40717e-05
-0.0186776
-0.000126797
-0.0161
-0.000128889
-0.0135181
-9.916e-05
-0.0107213
-5.40339e-05
-0.00757952
-1.53337e-05
-0.00437354
-0.0013989
2.34922e-05
-0.00159182
9.29761e-05
-0.00504187
0.000203688
-0.00891855
0.00034231
-0.0129683
0.000487686
-0.0168011
0.000631791
-0.0204091
0.000775148
-0.0239887
0.000919516
-0.0276793
0.001067
-0.0315779
0.00121977
-0.0357592
0.00138002
-0.0402877
0.00154987
-0.0452232
0.00173146
-0.0506244
0.0019269
-0.0565515
0.00213831
-0.0630671
0.00236782
-0.0702378
0.00261757
-0.0781344
0.00288968
-0.0868327
0.0031862
-0.0964139
0.00350902
-0.106965
0.0038598
-0.118577
0.00423973
-0.131347
0.00464929
-0.145375
0.00508789
-0.160763
0.00555335
-0.177613
0.00604116
-0.196022
0.00654354
-0.216075
0.00704816
-0.237841
0.00753649
-0.261362
0.00798183
-0.28664
0.00834708
-0.313623
0.00858249
-0.342194
0.00862407
-0.372155
0.00844882
-0.330742
0.00811555
-0.294034
0.00767372
-0.261564
0.00716309
-0.232864
0.00661445
-0.207489
0.00605097
-0.185033
0.00548959
-0.165136
0.0049423
-0.147483
0.00441729
-0.131797
0.00391987
-0.117841
0.00345321
-0.105406
0.00301891
-0.0943133
0.00261743
-0.0844056
0.00224847
-0.0755467
0.00191118
-0.0676171
0.00160437
-0.0605122
0.00132665
-0.0541396
0.00107657
-0.0484178
0.000852643
-0.0432743
0.000653493
-0.038644
0.000477864
-0.0344687
0.000324716
-0.0306946
0.000193305
-0.0272717
8.33079e-05
-0.0241516
-4.98163e-06
-0.0212841
-7.03178e-05
-0.0186122
-0.000109946
-0.0160604
-0.000118875
-0.0135092
-9.48684e-05
-0.0107453
-5.28846e-05
-0.00762151
-1.52169e-05
-0.00441121
-0.00141412
2.37268e-05
-0.00161554
9.37129e-05
-0.00511185
0.000204681
-0.00902952
0.000342782
-0.0131064
0.00048692
-0.0169453
0.00062971
-0.0205519
0.00077213
-0.0241311
0.000916197
-0.0278234
0.00106415
-0.0317258
0.00121823
-0.0359133
0.00138065
-0.0404502
0.00155357
-0.0453961
0.00173914
-0.05081
0.00193951
-0.0567518
0.00215684
-0.0632845
0.00239332
-0.0704743
0.00265117
-0.0783922
0.00293257
-0.0871141
0.00323967
-0.096721
0.00357449
-0.107299
0.00393876
-0.118941
0.00433378
-0.131742
0.00476014
-0.145801
0.00521728
-0.16122
0.00570303
-0.178099
0.0062128
-0.196532
0.00673861
-0.216601
0.00726768
-0.23837
0.00778082
-0.261875
0.00825023
-0.287109