/*--------------------------------*- C++ -*----------------------------------*\
| =========                 |                                                 |
| \\      /  F ield         | OpenFOAM: The Open Source CFD Toolbox           |
|  \\    /   O peration     | Version:  2412                                  |
|   \\  /    A nd           | Website:  www.openfoam.com                      |
|    \\/     M anipulation  |                                                 |
\*---------------------------------------------------------------------------*/
FoamFile
{
    version     2.0;
    format      ascii;
    arch        "LSB;label=32;scalar=64";
    class       volScalarField;
    location    "2000";
    object      phit;
}
// * * * * * * * * * * * * * * * * * * * * * * * * * * * * * * * * * * * * * //

dimensions      [0 0 0 0 0 0 0];

internalField   nonuniform List<scalar> 
32240
(
0.0110819
0.0464823
0.072207
0.0978432
0.130331
0.169977
0.215711
0.266328
0.320809
0.377879
0.435963
0.493328
0.548291
0.599419
0.645641
0.686288
0.721062
0.749964
0.773213
0.791159
0.804215
0.812805
0.817331
0.818189
0.815768
0.810431
0.802567
0.792579
0.78091
0.768064
0.754628
0.741289
0.72884
0.719177
0.712705
0.70857
0.706017
0.704402
0.703181
0.701895
0.700148
0.697598
0.693935
0.688876
0.682148
0.67348
0.662599
0.649216
0.633027
0.613699
0.590891
0.564268
0.533524
0.498419
0.458821
0.414771
0.366583
0.314955
0.261129
0.207094
0.155993
0.112148
0.0785549
0.0485081
0.0113916
0.0111986
0.0470305
0.0731836
0.0997477
0.13359
0.174971
0.222614
0.275154
0.331344
0.389684
0.448426
0.505766
0.560059
0.609986
0.654637
0.693506
0.726437
0.753537
0.775095
0.791498
0.803171
0.810523
0.813964
0.813878
0.810645
0.804613
0.796164
0.785695
0.773647
0.760526
0.746924
0.733539
0.721183
0.711748
0.70559
0.701826
0.699687
0.698522
0.697783
0.697013
0.69582
0.693866
0.690849
0.686492
0.680529
0.672701
0.66274
0.650364
0.635274
0.617138
0.595605
0.570313
0.54091
0.507086
0.468612
0.425406
0.37763
0.325832
0.27113
0.215482
0.162155
0.115951
0.0804589
0.0493896
0.0115685
0.0112403
0.0472126
0.0735071
0.100467
0.134926
0.177108
0.225618
0.279002
0.33591
0.394748
0.453708
0.510969
0.564916
0.61429
0.658252
0.696364
0.728524
0.754878
0.77574
0.791507
0.802608
0.809456
0.81245
0.811972
0.808392
0.802061
0.793356
0.782674
0.770455
0.757207
0.743527
0.730119
0.717802
0.708471
0.702455
0.698861
0.696912
0.695951
0.69543
0.69489
0.693942
0.692248
0.68951
0.685452
0.679814
0.672339
0.662763
0.650811
0.636185
0.618558
0.597576
0.572871
0.544076
0.510856
0.472941
0.430197
0.382718
0.330966
0.275975
0.219646
0.16526
0.117847
0.081384
0.049813
0.0116498
0.0113363
0.047665
0.0743452
0.102101
0.137664
0.181198
0.231136
0.285895
0.343948
0.403535
0.462752
0.519774
0.573051
0.621429
0.664181
0.700977
0.7318
0.756865
0.776522
0.791195
0.801311
0.807283
0.809504
0.808351
0.804183
0.797349
0.78822
0.777188
0.764695
0.751249
0.737452
0.724016
0.711772
0.702613
0.69683
0.693511
0.691869
0.691242
0.691081
0.690928
0.690394
0.689146
0.686887
0.683349
0.678274
0.671411
0.662503
0.651277
0.637429
0.620648
0.600574
0.576828
0.549021
0.51678
0.47978
0.437797
0.39081
0.33915
0.28373
0.226383
0.170421
0.121162
0.0830716
0.050591
0.0118047
0.0113908
0.0479142
0.0747978
0.103068
0.139425
0.183956
0.23494
0.290668
0.349496
0.409564
0.468917
0.525729
0.578498
0.626146
0.668038
0.703918
0.733833
0.758035
0.7769
0.790858
0.800336
0.805743
0.807466
0.805876
0.801322
0.794154
0.784737
0.773462
0.760771
0.747176
0.733285
0.719816
0.707614
0.698574
0.692957
0.689836
0.688415
0.688026
0.688119
0.688233
0.687985
0.687041
0.685109
0.681922
0.67723
0.670785
0.662333
0.651608
0.638332
0.622174
0.602775
0.579745
0.552681
0.521179
0.484868
0.443466
0.396873
0.345322
0.28962
0.231514
0.174307
0.123566
0.0842507
0.051118
0.0119065
0.0114863
0.0483618
0.0756463
0.104755
0.142236
0.188091
0.240412
0.297348
0.357082
0.417631
0.477
0.533396
0.585397
0.632033
0.672771
0.70745
0.736181
0.759264
0.777099
0.790118
0.798755
0.803414
0.804478
0.802312
0.797254
0.789653
0.779869
0.768291
0.755362
0.741594
0.727602
0.714111
0.701976
0.693091
0.687684
0.684809
0.683661
0.68357
0.68398
0.684435
0.68455
0.683996
0.682485
0.679752
0.675552
0.669641
0.661773
0.651684
0.639088
0.623671
0.605078
0.582917
0.556771
0.526213
0.490831
0.450279
0.40436
0.353169
0.297347
0.238489
0.179846
0.127218
0.0861206
0.0519707
0.0120746
0.0115484
0.0486487
0.0761832
0.105898
0.144299
0.191278
0.244752
0.302719
0.363229
0.4242
0.483596
0.539649
0.591011
0.636804
0.676587
0.710274
0.738035
0.760203
0.777197
0.78947
0.797438
0.801502
0.802039
0.79941
0.793943
0.785987
0.775897
0.764062
0.750922
0.736997
0.722905
0.70938
0.697287
0.688524
0.683287
0.680615
0.679695
0.679849
0.680521
0.681256
0.681668
0.681432
0.680265
0.677905
0.674113
0.668649
0.661272
0.651724
0.639729
0.624971
0.607095
0.585705
0.560368
0.53063
0.496037
0.456179
0.410769
0.359795
0.303775
0.244193
0.184264
0.130011
0.0875012
0.0525794
0.012192
0.0116454
0.0491043
0.0770638
0.107671
0.147241
0.195538
0.250274
0.3093
0.37052
0.431765
0.490989
0.546482
0.596992
0.641749
0.68041
0.712966
0.739642
0.760804
0.776875
0.788312
0.795537
0.798944
0.798903
0.795769
0.789861
0.781524
0.771109
0.759003
0.745649
0.731567
0.717381
0.703834
0.691802
0.683183
0.67814
0.675696
0.675028
0.675453
0.676417
0.677459
0.678199
0.678312
0.677519
0.675564
0.67221
0.667225
0.660373
0.651402
0.640041
0.625973
0.608858
0.588299
0.563856
0.535056
0.501413
0.462458
0.417818
0.367354
0.311417
0.251307
0.190097
0.133948
0.0895284
0.0534904
0.0123702
0.011716
0.0494327
0.0776966
0.109015
0.149622
0.199142
0.255082
0.315127
0.377037
0.438563
0.497653
0.552652
0.602399
0.646224
0.683872
0.715405
0.741093
0.761334
0.77659
0.78729
0.793856
0.796676
0.796116
0.792519
0.786206
0.777514
0.766793
0.754428
0.740863
0.726622
0.712335
0.698754
0.686765
0.678267
0.673395
0.671155
0.670715
0.671386
0.672614
0.673937
0.674975
0.675408
0.674957
0.673374
0.670424
0.665879
0.659509
0.651068
0.640289
0.626879
0.610485
0.590708
0.567101
0.539172
0.506401
0.468265
0.424307
0.374266
0.318339
0.257661
0.195202
0.137291
0.0912084
0.0542261
0.0125121
0.0118133
0.0498908
0.0785987
0.110856
0.152678
0.203521
0.260673
0.321665
0.384132
0.445768
0.504544
0.558882
0.607727
0.650512
0.687069
0.717527
0.742201
0.761511
0.775906
0.785839
0.791724
0.793944
0.792857
0.788794
0.782075
0.77303
0.762005
0.749386
0.735616
0.721223
0.706844
0.693238
0.681303
0.672939
0.668249
0.666224
0.666023
0.66695
0.668452
0.670066
0.671413
0.672175
0.672079
0.670879
0.668345
0.664256
0.658385
0.650495
0.640322
0.627574
0.61191
0.592935
0.570197
0.543193
0.511374
0.474172
0.43105
0.381629
0.325933
0.264888
0.201269
0.141457
0.0933623
0.0551795
0.0126971
0.0118934
0.0502652
0.079339
0.112423
0.155389
0.207518
0.265869
0.327803
0.390825
0.452579
0.511062
0.564776
0.612767
0.654567
0.690093
0.719533
0.743241
0.761661
0.775269
0.784494
0.789745
0.791399
0.789809
0.785297
0.778181
0.768787
0.757459
0.744581
0.7306
0.716048
0.701566
0.687923
0.676029
0.667784
0.663261
0.661438
0.66146
0.662628
0.664389
0.666277
0.667916
0.668989
0.669227
0.668389
0.66625
0.662591
0.657194
0.649825
0.64023
0.628118
0.613152
0.594944
0.57304
0.546925
0.516025
0.479728
0.437421
0.388609
0.33315
0.27176
0.207026
0.145382
0.0953729
0.0560556
0.0128658
0.0119914
0.0507277
0.080267
0.114338
0.158568
0.212025
0.271539
0.334315
0.397753
0.459472
0.51752
0.570495
0.61755
0.658316
0.692788
0.721207
0.743962
0.761508
0.774316
0.782825
0.787438
0.788527
0.786438
0.781483
0.773979
0.764246
0.752625
0.7395
0.725317
0.710614
0.696037
0.682365
0.670517
0.662397
0.658046
0.656425
0.656671
0.658083
0.660101
0.662262
0.66419
0.665573
0.666142
0.665661
0.663912
0.660679
0.65575
0.648899
0.639875
0.628396
0.614134
0.596704
0.575652
0.550454
0.52052
0.485195
0.443802
0.395732
0.340672
0.279103
0.213361
0.149832
0.097692
0.0570691
0.0130612
0.0120797
0.0511428
0.0811062
0.11611
0.161574
0.216342
0.277006
0.340603
0.40443
0.466092
0.523694
0.575929
0.62206
0.661814
0.695258
0.722687
0.744518
0.761227
0.773281
0.781114
0.785126
0.785679
0.783115
0.777736
0.769856
0.759791
0.747881
0.734507
0.72012
0.705261
0.690582
0.676873
0.665063
0.657058
0.65287
0.651443
0.651905
0.65355
0.655816
0.65824
0.660446
0.662125
0.663012
0.662874
0.661498
0.658674
0.654195
0.64784
0.639366
0.628497
0.614918
0.598244
0.578023
0.553726
0.524744
0.490389
0.449921
0.402623
0.348015
0.286339
0.219664
0.15429
0.100017
0.0580761
0.0132546
0.0121791
0.0516132
0.0820684
0.118116
0.164888
0.220978
0.282737
0.347054
0.411146
0.472627
0.529677
0.581098
0.626259
0.664978
0.697393
0.723841
0.744768
0.760652
0.771965
0.779138
0.782562
0.782594
0.779568
0.773778
0.765535
0.755149
0.742958
0.729345
0.714762
0.699753
0.684979
0.671237
0.659469
0.651581
0.647556
0.646324
0.647
0.648878
0.651389
0.654073
0.656554
0.658526
0.659727
0.659927
0.65892
0.656501
0.652467
0.646605
0.638678
0.628418
0.615512
0.599586
0.580193
0.5568
0.528785
0.495434
0.455946
0.409507
0.35547
0.293826
0.226331
0.15911
0.102562
0.059178
0.0134661
0.0122743
0.0520628
0.0829968
0.120075
0.168152
0.225553
0.288385
0.353383
0.417696
0.478959
0.535432
0.58603
0.630226
0.667927
0.699335
0.724828
0.744874
0.759972
0.770579
0.777121
0.779981
0.779511
0.776035
0.769844
0.761243
0.750539
0.738068
0.724214
0.70943
0.694266
0.679391
0.665609
0.653875
0.646098
0.642231
0.641187
0.642071
0.644175
0.646926
0.649862
0.652611
0.654866
0.656371
0.656899
0.656247
0.654218
0.650613
0.645226
0.637827
0.628157
0.61591
0.600713
0.58213
0.559628
0.532576
0.500232
0.461747
0.416212
0.362819
0.301307
0.233096
0.164071
0.105198
0.0603142
0.0136838
0.0123762
0.0525464
0.0840051
0.12219
0.171617
0.230318
0.294159
0.359743
0.424172
0.485121
0.540948
0.59068
0.633895
0.670583
0.701002
0.725565
0.744761
0.759085
0.769
0.774924
0.777234
0.776275
0.77236
0.765779
0.756829
0.745815
0.733071
0.71898
0.704
0.688685
0.67371
0.65989
0.648191
0.640523
0.636811
0.635953
0.637043
0.63937
0.642357
0.645542
0.648553
0.651089
0.652892
0.653743
0.653441
0.651795
0.648612
0.643689
0.636805
0.627707
0.616096
0.601624
0.583845
0.562231
0.536144
0.504823
0.467375
0.422807
0.370155
0.308903
0.240103
0.169313
0.108015
0.0615269
0.0139159
0.0124772
0.0530256
0.0850135
0.124317
0.1751
0.235082
0.299892
0.366006
0.430492
0.491082
0.546236
0.595094
0.637337
0.673031
0.702487
0.726152
0.744523
0.758104
0.767353
0.772682
0.774461
0.773027
0.768683
0.761717
0.752422
0.741099
0.728079
0.713749
0.698569
0.683097
0.668016
0.654152
0.642481
0.634916
0.631354
0.630676
0.631963
0.634507
0.637721
0.641145
0.644409
0.647212
0.649302
0.650462
0.650495
0.649219
0.646442
0.641971
0.635591
0.627056
0.616077
0.602303
0.585307
0.564563
0.539431
0.509134
0.472744
0.429189
0.37736
0.316483
0.247226
0.174739
0.11096
0.0627919
0.0141578
0.0125823
0.0535253
0.0860742
0.126548
0.178706
0.239938
0.305645
0.372195
0.436646
0.496801
0.551232
0.599193
0.64046
0.675173
0.703688
0.726479
0.744058
0.756925
0.765532
0.770286
0.771549
0.769654
0.764893
0.757554
0.747922
0.736297
0.723009
0.708445
0.693067
0.677441
0.662256
0.648348
0.636704
0.62924
0.625825
0.625324
0.626807
0.629562
0.633
0.636658
0.64017
0.643234
0.645603
0.647063
0.647421
0.6465
0.644115
0.640079
0.634183
0.62619
0.615819
0.602731
0.586502
0.566616
0.542435
0.513169
0.477859
0.435366
0.384443
0.324067
0.254497
0.180392
0.114066
0.064125
0.0144125
0.0126877
0.0540271
0.0871486
0.128812
0.182345
0.244792
0.311335
0.378247
0.442596
0.502268
0.555949
0.603005
0.643306
0.677056
0.704654
0.726598
0.743415
0.755595
0.763586
0.767787
0.768555
0.766216
0.761053
0.753351
0.743391
0.731469
0.717916
0.703119
0.687543
0.671761
0.656469
0.642513
0.630892
0.623525
0.620253
0.619924
0.621597
0.624559
0.628214
0.632102
0.635854
0.639173
0.641814
0.643565
0.644239
0.643662
0.641657
0.63804
0.632612
0.625142
0.615358
0.602929
0.587452
0.56841
0.545166
0.516927
0.482709
0.441312
0.391366
0.331606
0.261871
0.186246
0.117323
0.0655231
0.0146797
0.0127954
0.054541
0.0882575
0.131144
0.186052
0.249667
0.316968
0.384156
0.448328
0.507463
0.560367
0.606516
0.645865
0.678678
0.705391
0.726521
0.742595
0.754107
0.7615
0.765166
0.765454
0.762685
0.757131
0.749076
0.738796
0.726584
0.71277
0.697742
0.681971
0.666033
0.650635
0.63663
0.62503
0.617757
0.614625
0.614465
0.616325
0.619489
0.623359
0.627472
0.631462
0.635032
0.637939
0.639977
0.640961
0.640721
0.639089
0.635884
0.630914
0.623955
0.614745
0.602963
0.588212
0.569989
0.54766
0.520431
0.4873
0.447019
0.398106
0.339068
0.26932
0.192288
0.120734
0.0669892
0.01496
0.0129042
0.0550604
0.0893866
0.133515
0.189787
0.254518
0.322502
0.38989
0.453823
0.512384
0.564497
0.609743
0.648157
0.680055
0.70591
0.726252
0.741615
0.752489
0.75931
0.762463
0.76229
0.759104
0.753172
0.744773
0.734178
0.721679
0.707606
0.692348
0.67638
0.660284
0.644775
0.630717
0.619134
0.61195
0.608952
0.608956
0.610998
0.614361
0.618441
0.622774
0.626996
0.630812
0.633982
0.636301
0.637591
0.637683
0.636417
0.633616
0.629093
0.622634
0.613984
0.602831
0.588786
0.571354
0.549913
0.523669
0.491606
0.45244
0.404595
0.346368
0.276763
0.198487
0.124313
0.0685325
0.0152551
0.0130156
0.0555933
0.0905529
0.135948
0.19356
0.259337
0.32792
0.395432
0.459074
0.517035
0.568354
0.61271
0.650211
0.681225
0.70625
0.72583
0.740506
0.750762
0.757029
0.759684
0.759063
0.755469
0.749168
0.740431
0.729526
0.716744
0.702413
0.686925
0.670759
0.654503
0.638881
0.624768
0.613197
0.606097
0.603229
0.60339
0.60561
0.609164
0.613445
0.617991
0.622436
0.626489
0.62991
0.6325
0.634083
0.634495
0.63358
0.63117
0.62708
0.621106
0.612998
0.602453
0.589094
0.572438
0.551865
0.526583
0.495565
0.457489
0.410692
0.353281
0.283881
0.204597
0.128182
0.0702163
0.015578
0.0131327
0.0561557
0.0917892
0.138429
0.197325
0.264065
0.333174
0.400757
0.464077
0.521428
0.571958
0.615439
0.652048
0.682199
0.706418
0.725267
0.739283
0.748945
0.754678
0.756851
0.755796
0.751805
0.745142
0.736073
0.724862
0.711798
0.697209
0.681491
0.665124
0.648705
0.632966
0.618793
0.607229
0.600209
0.597464
0.597776
0.600167
0.603905
0.608382
0.613133
0.617793
0.622074
0.625738
0.628589
0.630456
0.631178
0.630603
0.628571
0.624904
0.619401
0.611823
0.601876
0.589193
0.573304
0.553596
0.52928
0.499325
0.462378
0.416696
0.360202
0.29114
0.210953
0.132264
0.0719934
0.015919
0.0132598
0.0567663
0.0931312
0.140875
0.200995
0.268653
0.338256
0.405886
0.468867
0.525601
0.575347
0.617968
0.653708
0.683023
0.706464
0.724602
0.737974
0.747055
0.752264
0.753965
0.752484
0.748102
0.741083
0.731685
0.720172
0.706828
0.691983
0.676034
0.659466
0.642883
0.627026
0.612789
0.601229
0.594283
0.591656
0.592114
0.59467
0.598586
0.603251
0.608199
0.613067
0.617567
0.621466
0.624569
0.626708
0.62773
0.627485
0.625819
0.62256
0.617516
0.610455
0.601093
0.589072
0.573932
0.555072
0.53171
0.502812
0.467003
0.422473
0.366975
0.298379
0.21744
0.136518
0.0738516
0.016276
0.0133859
0.0573731
0.0944805
0.143354
0.204696
0.273231
0.343258
0.410855
0.473429
0.529499
0.578435
0.62019
0.655069
0.683568
0.706251
0.723701
0.736454
0.744982
0.749693
0.750947
0.749062
0.74431
0.736952
0.727242
0.715438
0.701823
0.686729
0.670554
0.653787
0.63704
0.621063
0.606761
0.595202
0.588325
0.585813
0.58641
0.589126
0.593214
0.59806
0.6032
0.608269
0.612982
0.617107
0.620454
0.622857
0.624168
0.624241
0.62293
0.620067
0.615468
0.608908
0.600114
0.588739
0.574336
0.556311
0.533894
0.506053
0.471397
0.428057
0.373633
0.305632
0.224092
0.140973
0.0758065
0.0166524
0.0135134
0.0579876
0.0958554
0.145859
0.208385
0.277736
0.348119
0.415625
0.477753
0.533138
0.58126
0.622156
0.65619
0.683889
0.705845
0.722638
0.7348
0.742797
0.747032
0.747856
0.745582
0.740471
0.732785
0.722769
0.71068
0.6968
0.681459
0.665058
0.648093
0.631181
0.615082
0.600712
0.58915
0.582338
0.579934
0.580665
0.583536
0.58779
0.592812
0.598136
0.6034
0.608319
0.612665
0.616248
0.618909
0.620501
0.620885
0.619918
0.61744
0.613272
0.6072
0.598958
0.588209
0.574518
0.557317
0.535836
0.509048
0.475553
0.433434
0.380154
0.312871
0.230889
0.145626
0.0778591
0.0170486
0.0136419
0.0586069
0.0972509
0.148387
0.212065
0.282176
0.352848
0.420203
0.48184
0.536516
0.583819
0.623864
0.657069
0.683991
0.705242
0.7214
0.732994
0.740482
0.74426
0.744673
0.742027
0.736575
0.728573
0.718263
0.705898
0.691758
0.676174
0.65955
0.642387
0.62531
0.609088
0.594648
0.583078
0.576327
0.574025
0.574884
0.577902
0.582315
0.587505
0.593007
0.598458
0.603575
0.608133
0.611945
0.614855
0.616721
0.617406
0.616774
0.614674
0.61093
0.605336
0.597636
0.587506
0.574522
0.558123
0.53756
0.511813
0.479478
0.438603
0.386528
0.320082
0.237823
0.150483
0.080016
0.0174663
0.0137709
0.0592298
0.0986636
0.15093
0.215721
0.286533
0.357429
0.424579
0.48569
0.539643
0.586128
0.625338
0.657737
0.683911
0.704476
0.720021
0.731068
0.738068
0.74141
0.741429
0.738426
0.732645
0.724338
0.713742
0.701106
0.686711
0.670887
0.654041
0.63668
0.619436
0.603087
0.588573
0.576992
0.570294
0.568089
0.569069
0.572226
0.576789
0.582139
0.587809
0.593437
0.598742
0.6035
0.607529
0.610675
0.612799
0.613771
0.613459
0.611718
0.60838
0.603245
0.596069
0.586536
0.574238
0.55863
0.53897
0.514257
0.483088
0.443483
0.392677
0.327194
0.244839
0.15552
0.0822692
0.0179043
0.0139007
0.0598571
0.100095
0.153488
0.219351
0.2908
0.361853
0.428741
0.489289
0.542502
0.588171
0.626558
0.658172
0.683617
0.703526
0.718486
0.729013
0.73555
0.738477
0.738123
0.734778
0.728683
0.720083
0.70921
0.696311
0.681665
0.665603
0.648536
0.630976
0.613563
0.597086
0.582494
0.570896
0.564247
0.562132
0.563225
0.566514
0.57122
0.576722
0.582551
0.588349
0.593833
0.598783
0.60302
0.606391
0.608765
0.610014
0.610009
0.608616
0.605668
0.600978
0.594307
0.585354
0.573721
0.558878
0.540112
0.516426
0.486424
0.44811
0.39863
0.334223
0.251951
0.160755
0.0846309
0.0183654
0.0140311
0.0604877
0.101542
0.156055
0.222947
0.294971
0.366117
0.432694
0.49265
0.545113
0.589969
0.627546
0.658393
0.683143
0.702427
0.716831
0.726863
0.732959
0.735491
0.73478
0.731107
0.724708
0.715823
0.70468
0.691523
0.676629
0.660331
0.643043
0.625282
0.607697
0.591089
0.576415
0.564796
0.558189
0.556157
0.557357
0.56077
0.565612
0.571257
0.577238
0.583196
0.58885
0.593983
0.598417
0.602005
0.604617
0.606131
0.606424
0.605364
0.602797
0.598538
0.592362
0.583975
0.572996
0.558911
0.541019
0.518345
0.489505
0.452493
0.404384
0.341159
0.259147
0.166191
0.0871068
0.0188511
0.0141622
0.0611218
0.103005
0.158628
0.226501
0.299037
0.370217
0.436438
0.49578
0.54749
0.591547
0.628339
0.658446
0.682523
0.701204
0.715073
0.724629
0.730301
0.732453
0.731399
0.72741
0.720719
0.711558
0.700153
0.686743
0.671605
0.655073
0.637563
0.619601
0.601844
0.585101
0.570343
0.558697
0.552127
0.550172
0.551471
0.555002
0.559971
0.565752
0.571877
0.577987
0.583804
0.589111
0.593734
0.597529
0.60037
0.602138
0.602716
0.601978
0.599777
0.595934
0.590235
0.582397
0.572053
0.558706
0.541673
0.519996
0.49231
0.45661
0.409914
0.347973
0.266404
0.171823
0.0896996
0.0193627
0.0142931
0.0617549
0.104473
0.161187
0.229985
0.302961
0.374107
0.439922
0.498621
0.54957
0.592835
0.628861
0.658253
0.681683
0.69979
0.713151
0.722258
0.727531
0.729326
0.72795
0.723663
0.716696
0.707274
0.695617
0.681963
0.666588
0.649827
0.632099
0.613936
0.596005
0.579126
0.564279
0.552603
0.546064
0.544179
0.545571
0.549211
0.5543
0.56021
0.566472
0.572726
0.578698
0.584172
0.588976
0.592971
0.596032
0.598046
0.598901
0.598474
0.596627
0.593188
0.587951
0.580647
0.570919
0.55829
0.542095
0.5214
0.494858
0.460474
0.415225
0.354661
0.273714
0.177656
0.0924178
0.0199026
0.014424
0.0623883
0.105947
0.163734
0.233401
0.306747
0.377792
0.443153
0.50118
0.551356
0.593831
0.629099
0.657808
0.680624
0.698188
0.71107
0.719755
0.724654
0.726115
0.724438
0.719871
0.712645
0.702975
0.691078
0.67719
0.661584
0.644597
0.626654
0.608292
0.590186
0.573169
0.558231
0.546519
0.540004
0.538182
0.539659
0.5434
0.5486
0.55463
0.561019
0.56741
0.573527
0.579158
0.584134
0.588318
0.591589
0.593839
0.594958
0.59483
0.593325
0.590277
0.585488
0.578699
0.56957
0.557638
0.542259
0.522529
0.497121
0.464054
0.420283
0.361185
0.281041
0.183676
0.0952613
0.0204715
0.0145546
0.0630208
0.107427
0.166264
0.236743
0.310392
0.381279
0.446147
0.503487
0.552895
0.594597
0.629131
0.657166
0.679384
0.696424
0.708849
0.717134
0.72168
0.722828
0.720869
0.716041
0.70857
0.698667
0.686542
0.672428
0.656599
0.639392
0.621235
0.602674
0.584393
0.567235
0.552202
0.540451
0.533953
0.532187
0.53374
0.537573
0.542875
0.549015
0.555521
0.562037
0.568289
0.574066
0.579203
0.583564
0.587033
0.589505
0.590876
0.591035
0.589856
0.587184
0.582827
0.57654
0.567994
0.556744
0.542169
0.523384
0.499094
0.467342
0.425072
0.36752
0.288361
0.189875
0.0982325
0.0210706
0.0146847
0.0636506
0.108905
0.168766
0.239993
0.31387
0.384534
0.448863
0.505492
0.554126
0.595064
0.628882
0.656273
0.677925
0.694473
0.706471
0.714385
0.718606
0.719465
0.717246
0.712178
0.70448
0.694358
0.682017
0.667687
0.651641
0.634218
0.61585
0.59709
0.578633
0.561332
0.546201
0.534404
0.527918
0.5262
0.52782
0.531737
0.537132
0.543371
0.549985
0.556616
0.562993
0.568907
0.574193
0.57872
0.582376
0.585058
0.586668
0.587099
0.586232
0.583919
0.579978
0.574173
0.56619
0.555601
0.541807
0.523951
0.500765
0.470322
0.429573
0.373642
0.295644
0.19624
0.101334
0.0217017
0.0148147
0.0642803
0.110388
0.171249
0.243164
0.317201
0.387582
0.451333
0.50723
0.555084
0.595261
0.628393
0.655169
0.676283
0.692367
0.703964
0.711532
0.715452
0.716044
0.713585
0.708294
0.700385
0.690057
0.677512
0.662975
0.646719
0.629084
0.610506
0.591547
0.572913
0.555466
0.540234
0.528386
0.521905
0.520226
0.521906
0.525897
0.531375
0.537706
0.544418
0.551155
0.557647
0.563686
0.569112
0.573795
0.577626
0.580508
0.582344
0.583034
0.582464
0.580496
0.576954
0.571612
0.564172
0.554222
0.541186
0.524232
0.502133
0.472994
0.433782
0.379539
0.302872
0.202767
0.104571
0.0223667
0.0149445
0.0649087
0.111874
0.173708
0.246249
0.320381
0.390428
0.453572
0.508729
0.555814
0.595252
0.627699
0.653873
0.674468
0.690109
0.701329
0.708574
0.712216
0.712564
0.709886
0.704392
0.696289
0.685771
0.673033
0.658299
0.641839
0.623996
0.605212
0.586054
0.567239
0.549645
0.534307
0.522404
0.51592
0.514274
0.516004
0.520061
0.525614
0.532026
0.538827
0.54566
0.552258
0.558415
0.563971
0.5688
0.572797
0.575867
0.577919
0.578857
0.578573
0.576936
0.573779
0.568887
0.561974
0.552647
0.540352
0.524285
0.503254
0.475403
0.437732
0.38523
0.310051
0.209463
0.107956
0.0230698
0.0150736
0.0655341
0.113356
0.17613
0.249231
0.323384
0.393035
0.455532
0.50993
0.556244
0.594953
0.626746
0.652351
0.672459
0.68769
0.698564
0.705515
0.708905
0.709033
0.706158
0.70048
0.692201
0.681507
0.668588
0.653666
0.63701
0.618963
0.599973
0.580616
0.56162
0.543875
0.528426
0.516463
0.50997
0.508348
0.510121
0.514233
0.519852
0.526336
0.533217
0.540139
0.546833
0.553098
0.558775
0.563742
0.567894
0.571143
0.5734
0.574575
0.574564
0.573246
0.570459
0.566
0.559596
0.550872
0.539295
0.524093
0.504108
0.47753
0.441402
0.390685
0.317148
0.216312
0.111492
0.0238128
0.015203
0.0661605
0.114844
0.17853
0.252127
0.326235
0.395439
0.457255
0.510881
0.55642
0.594423
0.625587
0.650647
0.670295
0.685139
0.695691
0.702373
0.705533
0.705461
0.702409
0.696566
0.688127
0.67727
0.664183
0.649083
0.632236
0.61399
0.594796
0.57524
0.556061
0.538161
0.522599
0.510569
0.50406
0.502454
0.50426
0.508419
0.514093
0.52064
0.527591
0.53459
0.541372
0.547735
0.553524
0.558618
0.562917
0.566334
0.568786
0.570186
0.570437
0.569424
0.566993
0.562952
0.557039
0.548897
0.538016
0.523654
0.504692
0.479367
0.444777
0.395885
0.324132
0.223296
0.115181
0.024598
0.0153321
0.0667861
0.116332
0.180898
0.254929
0.328929
0.397641
0.458757
0.511609
0.556387
0.593684
0.62423
0.648765
0.667973
0.682456
0.692708
0.699142
0.702095
0.701846
0.698636
0.692646
0.684064
0.673061
0.659819
0.64455
0.627522
0.609081
0.589685
0.56993
0.550566
0.53251
0.51683
0.504728
0.498196
0.496598
0.498428
0.502623
0.508341
0.51494
0.521949
0.529014
0.535871
0.54232
0.548208
0.553417
0.557849
0.561421
0.564054
0.565665
0.566162
0.565436
0.563344
0.5597
0.554258
0.546675
0.536464
0.522914
0.504945
0.480858
0.447803
0.400773
0.330945
0.230375
0.119016
0.0254257
0.0154603
0.0674065
0.11781
0.183212
0.2576
0.331414
0.399573
0.459947
0.512007
0.556027
0.592641
0.622597
0.646635
0.665436
0.679585
0.689568
0.695782
0.698555
0.698157
0.694813
0.688701
0.679998
0.668868
0.655487
0.640064
0.622864
0.604236
0.584643
0.564689
0.54514
0.526925
0.511125
0.498947
0.492384
0.490786
0.492631
0.496852
0.502604
0.509243
0.5163
0.52342
0.530342
0.536866
0.542842
0.548155
0.552709
0.556424
0.559225
0.561035
0.561765
0.561313
0.559545
0.556284
0.551297
0.544257
0.5347
0.521945
0.504953
0.482078
0.450543
0.405394
0.337611
0.237561
0.123013
0.0263017
0.0155885
0.0680273
0.11929
0.185495
0.260174
0.333737
0.401293
0.460895
0.512147
0.555411
0.591352
0.620731
0.644292
0.662704
0.676543
0.68628
0.692301
0.69492
0.694396
0.690945
0.684734
0.675932
0.664695
0.651192
0.635629
0.618268
0.59946
0.579674
0.559524
0.539789
0.521413
0.505489
0.49323
0.486631
0.485026
0.486876
0.491114
0.496889
0.503558
0.510651
0.517816
0.52479
0.531378
0.537431
0.542835
0.547499
0.551345
0.554301
0.556295
0.557244
0.557049
0.555588
0.552691
0.548137
0.541616
0.532688
0.520699
0.504657
0.482969
0.452941
0.409691
0.344067
0.24481
0.127165
0.0272268
0.0157163
0.0686455
0.120764
0.187733
0.262634
0.335883
0.402789
0.461596
0.512031
0.554529
0.589799
0.618615
0.641715
0.659762
0.673316
0.682834
0.688688
0.691181
0.690559
0.687026
0.680742
0.671865
0.660542
0.646937
0.631249
0.613739
0.594759
0.574784
0.55444
0.534518
0.515979
0.499929
0.487585
0.480944
0.479323
0.481172
0.485416
0.491205
0.497894
0.505013
0.512211
0.519228
0.52587
0.531989
0.537474
0.542236
0.546201
0.549301
0.551466
0.55262
0.55267
0.5515
0.548951
0.544812
0.538791
0.530468
0.519223
0.504103
0.483579
0.455036
0.41369
0.350321
0.252122
0.131484
0.0282064
0.0158434
0.069261
0.122232
0.189921
0.264974
0.337836
0.404041
0.46202
0.511626
0.553367
0.587981
0.616251
0.638913
0.656618
0.669911
0.679236
0.68495
0.687343
0.686649
0.683063
0.67673
0.667802
0.656415
0.642727
0.62693
0.609283
0.590139
0.56998
0.549443
0.529334
0.51063
0.49445
0.482018
0.475329
0.473686
0.475524
0.479766
0.485559
0.492258
0.499393
0.506615
0.513665
0.520349
0.526524
0.53208
0.53693
0.541003
0.544234
0.546559
0.547905
0.548184
0.547289
0.54507
0.541327
0.535783
0.528041
0.517511
0.503281
0.483886
0.456806
0.417366
0.356339
0.259464
0.135971
0.0292438
0.0159708
0.0698779
0.123703
0.192076
0.267211
0.339623
0.405075
0.462192
0.510965
0.551949
0.585915
0.613653
0.635893
0.653276
0.66633
0.675485
0.681084
0.683404
0.682666
0.679052
0.672698
0.663743
0.652316
0.638565
0.622676
0.604905
0.585607
0.565269
0.544539
0.524242
0.505371
0.489059
0.476535
0.469792
0.468121
0.469941
0.474171
0.479959
0.486658
0.493799
0.501035
0.508108
0.514826
0.521047
0.526663
0.531591
0.535763
0.539116
0.54159
0.543117
0.543614
0.542981
0.541078
0.537715
0.532632
0.52545
0.515611
0.502246
0.483952
0.458305
0.420759
0.362139
0.266842
0.140643
0.0303464
0.0160987
0.0704977
0.125181
0.194202
0.26936
0.341267
0.405931
0.462168
0.51008
0.550298
0.583615
0.610828
0.63266
0.649737
0.662573
0.671581
0.677091
0.679363
0.678609
0.674995
0.668648
0.659693
0.648249
0.634456
0.618493
0.600612
0.581168
0.560655
0.539735
0.519249
0.500208
0.483761
0.471141
0.464341
0.462634
0.464428
0.468636
0.474409
0.481097
0.488234
0.495472
0.502556
0.509296
0.51555
0.521214
0.526207
0.530463
0.533923
0.536531
0.538221
0.53892
0.53853
0.536922
0.533918
0.529271
0.522624
0.513447
0.500916
0.483692
0.459449
0.423784
0.367633
0.27418
0.145478
0.0315141
0.0162267
0.071118
0.126658
0.196287
0.271399
0.342736
0.406564
0.461892
0.508938
0.548392
0.58107
0.607771
0.62921
0.646
0.658638
0.667523
0.672968
0.67522
0.674477
0.670892
0.664578
0.65565
0.644215
0.630403
0.614384
0.596407
0.576826
0.556144
0.535035
0.514358
0.495146
0.478562
0.465844
0.458981
0.457233
0.458992
0.463171
0.468918
0.475586
0.482707
0.489938
0.497022
0.503772
0.510049
0.51575
0.520796
0.525124
0.528677
0.531404
0.533243
0.534126
0.53396
0.532628
0.52996
0.525725
0.519585
0.511039
0.499307
0.483115
0.46024
0.426432
0.372793
0.281438
0.150475
0.0327514
0.0163558
0.0717443
0.128147
0.198351
0.273357
0.344071
0.407024
0.461417
0.507584
0.546268
0.578309
0.604503
0.62556
0.642077
0.654535
0.663316
0.668719
0.670976
0.67027
0.666741
0.66049
0.651616
0.640217
0.626408
0.610354
0.592295
0.572588
0.551741
0.530444
0.509576
0.49019
0.473467
0.460648
0.453719
0.451923
0.453642
0.457781
0.463494
0.470131
0.477227
0.48444
0.491515
0.498265
0.504555
0.510282
0.51537
0.519758
0.523393
0.526225
0.528199
0.529248
0.529289
0.528211
0.525854
0.522
0.516332
0.508377
0.497396
0.482179
0.460605
0.42861
0.377498
0.288494
0.155592
0.0340549
0.0164858
0.0723756
0.129645
0.200388
0.275226
0.34526
0.407299
0.460735
0.506012
0.543924
0.575329
0.601025
0.621709
0.637966
0.650261
0.658958
0.66434
0.666627
0.665986
0.662542
0.656382
0.647592
0.636254
0.622473
0.606404
0.588279
0.568456
0.54745
0.525966
0.504904
0.485344
0.46848
0.455558
0.44856
0.446712
0.448382
0.452474
0.458143
0.464739
0.471801
0.478986
0.486042
0.492784
0.499077
0.504822
0.509944
0.514383
0.518091
0.521019
0.523116
0.524321
0.524555
0.523713
0.521648
0.518152
0.512926
0.505521
0.495237
0.480923
0.460552
0.430205
0.381409
0.294901
0.16096
0.0354631
0.0166175
0.0730158
0.131162
0.202412
0.277024
0.346325
0.407409
0.459872
0.50425
0.541387
0.572157
0.597357
0.617676
0.633683
0.645827
0.654456
0.659838
0.662178
0.661625
0.658295
0.652254
0.643576
0.632328
0.618601
0.602536
0.584363
0.564434
0.543274
0.521604
0.500348
0.48061
0.463604
0.450579
0.44351
0.441605
0.443221
0.447256
0.452871
0.459417
0.466433
0.473579
0.480606
0.487329
0.493615
0.499366
0.50451
0.50899
0.512759
0.515772
0.51798
0.519327
0.519739
0.519119
0.517327
0.514166
0.509356
0.502469
0.492841
0.479373
0.460126
0.431324
0.384701
0.30083
0.166631
0.0369943
0.0167515