/*--------------------------------*- C++ -*----------------------------------*\
| =========                 |                                                 |
| \\      /  F ield         | OpenFOAM: The Open Source CFD Toolbox           |
|  \\    /   O peration     | Version:  2412                                  |
|   \\  /    A nd           | Website:  www.openfoam.com                      |
|    \\/     M anipulation  |                                                 |
\*---------------------------------------------------------------------------*/
FoamFile
{
    version     2.0;
    format      ascii;
    arch        "LSB;label=32;scalar=64";
    class       volSymmTensorField;
    location    "2000";
    object      turbulenceProperties:R;
}
// * * * * * * * * * * * * * * * * * * * * * * * * * * * * * * * * * * * * * //

dimensions      [0 2 -2 0 0 0 0];

internalField   nonuniform List<symmTensor> 
32240
(
(0.00245641 2.42139e-05 -3.83247e-31 0.00245641 -0 0.00245641)
(0.0011774 8.44882e-05 2.07032e-30 0.00117733 -0 0.00117737)
(0.00101585 0.000153881 -0 0.00101562 -0 0.00101574)
(0.00114106 0.000242113 -0 0.00114052 -0 0.00114081)
(0.00128652 0.000342081 -8.3735e-29 0.00128543 -0 0.001286)
(0.00135177 0.000430927 1.1811e-28 0.00134986 -0 0.00135086)
(0.00133642 0.000474032 -1.47802e-28 0.00133358 4.01853e-28 0.00133505)
(0.0012854 0.000494718 -1.05556e-24 0.00128155 1.13463e-27 0.00128354)
(0.00122385 0.000502292 -1.45512e-24 0.00121892 -4.97106e-28 0.00122147)
(0.00116403 0.000501518 3.44052e-24 0.00115798 -3.25684e-27 0.00116112)
(0.00111144 0.000494962 2.86489e-32 0.00110421 1.50507e-27 0.00110796)
(0.00106814 0.00048412 -5.88043e-28 0.00105965 -8.36068e-28 0.00106407)
(0.00103449 0.000469894 6.20203e-24 0.00102465 -5.49773e-27 0.00102978)
(0.00100998 0.000452831 -7.07884e-24 0.000998703 8.46267e-27 0.0010046)
(0.000993777 0.000433244 -8.16741e-28 0.000980952 -1.21682e-27 0.000987674)
(0.000984958 0.000411286 1.81258e-27 0.000970469 -9.35164e-28 0.000978087)
(0.000982637 0.000386997 2.03339e-23 0.000966371 -2.62224e-26 0.000974953)
(0.000986027 0.000360331 -2.20433e-23 0.00096789 3.06712e-26 0.000977494)
(0.000994476 0.000331187 2.44993e-27 0.000974403 -1.21532e-27 0.000985075)
(0.00100745 0.000299421 -2.70455e-27 0.000985419 -0 0.00099718)
(0.0010245 0.000264859 -0 0.00100056 -0 0.0010134)
(0.00104528 0.000227319 -8.5773e-32 0.00101958 -1.89312e-27 0.00103344)
(0.00106951 0.000186621 -2.85325e-23 0.00104229 5.91351e-26 0.00105706)
(0.00109696 0.000142613 5.78033e-23 0.00106861 -1.14396e-25 0.00108408)
(0.00112739 9.51876e-05 -2.89561e-23 0.00109846 4.94258e-26 0.00111436)
(0.00116059 4.43136e-05 -2.8713e-23 0.00113181 7.21059e-26 0.00114775)
(0.00119625 -9.92593e-06 2.81024e-23 0.00116858 -5.90965e-26 0.00118404)
(0.00123398 -6.72891e-05 -1.86662e-31 0.00120859 -4.41127e-27 0.00122292)
(0.00127319 -0.000127314 -0 0.00125148 -0 0.00126388)
(0.00131298 -0.000189258 -2.83761e-27 0.00129657 -0 0.0013061)
(0.00135203 -0.000252003 5.42675e-29 0.0013427 -0 0.00134831)
(0.00138839 -0.000313996 3.09925e-27 0.00138801 -0 0.00138854)
(0.00141931 -0.0003732 -3.91249e-32 0.00142949 5.58452e-27 0.00142398)
(0.00143895 -0.000422211 1.00993e-23 0.00145953 -2.72045e-26 0.00144812)
(0.0014468 -0.00045775 -1.07824e-25 0.00147593 3.56866e-27 0.00145979)
(0.00144538 -0.0004828 1.12284e-23 0.00148105 -4.11791e-26 0.00146141)
(0.00143691 -0.000499884 -2.39089e-23 0.00147723 5.04074e-26 0.0014552)
(0.00142324 -0.000511016 8.87544e-27 0.00146647 1.51406e-26 0.00144302)
(0.00140592 -0.000517825 -1.49263e-29 0.00145055 -0 0.00142652)
(0.00138623 -0.000521578 -3.77496e-27 0.00143094 -0 0.00140702)
(0.00136513 -0.000523247 3.47552e-27 0.00140885 -0 0.0013856)
(0.00134341 -0.000523572 -3.18814e-27 0.00138526 -0 0.00136312)
(0.00132166 -0.000523101 -2.94248e-27 0.00136097 -0 0.00134028)
(0.00130037 -0.000522234 2.68603e-27 0.00133664 -0 0.00131762)
(0.00127991 -0.000521256 2.48084e-27 0.00131282 -0 0.00129562)
(0.00126062 -0.000520361 -2.25627e-27 0.00128996 -0 0.00127466)
(0.00124277 -0.000519673 2.08117e-27 0.00126847 -0 0.0012551)
(0.00122664 -0.000519259 -3.78799e-27 0.00124875 -2.67774e-26 0.00123726)
(0.00121252 -0.00051914 -2.06716e-23 0.00123115 3.56849e-26 0.00122148)
(0.00120071 -0.000519292 1.9403e-23 0.00121605 2.72406e-26 0.00120809)
(0.00119157 -0.000519649 8.76555e-24 0.00120387 -3.77005e-26 0.00119748)
(0.00118552 -0.000520089 -8.0084e-24 0.00119506 -8.35679e-27 0.0011901)
(0.00118303 -0.000520422 5.84753e-28 0.00119014 1.04114e-26 0.00118643)
(0.00118465 -0.000520347 5.29679e-28 0.00118966 -0 0.00118702)
(0.00119092 -0.000519386 -4.73208e-28 0.00119418 -0 0.00119244)
(0.00120226 -0.000516749 -4.23333e-28 0.00120412 -0 0.00120311)
(0.00121856 -0.000511079 3.73061e-28 0.00121936 -0 0.0012189)
(0.00123815 -0.000499914 1.62744e-28 0.00123822 -0 0.00123813)
(0.00125525 -0.000478451 -1.37922e-28 0.00125491 -0 0.00125504)
(0.00125398 -0.000436642 -2.75396e-32 0.00125349 3.29099e-27 0.0012537)
(0.00119756 -0.000346662 1.21757e-25 0.00119715 -2.63363e-27 0.00119734)
(0.0010758 -0.000243875 -6.50875e-26 0.00107556 -7.8513e-28 0.00107567)
(0.000967761 -0.000151539 -2.98213e-33 0.000967653 6.2803e-28 0.000967701)
(0.00112836 -8.15783e-05 -0 0.00112833 -0 0.00112835)
(0.0023361 -2.31864e-05 -0 0.0023361 -0 0.0023361)
(0.00251228 2.51941e-05 -3.57439e-28 0.00251227 1.03368e-29 0.00251227)
(0.0012038 8.7919e-05 1.26644e-27 0.00120371 1.62922e-28 0.00120375)
(0.00104413 0.000160369 -2.25061e-29 0.00104382 -3.8766e-28 0.00104397)
(0.00117276 0.00025156 3.79623e-29 0.00117199 -3.0922e-27 0.00117236)
(0.00131872 0.000356286 -2.7639e-25 0.00131714 3.77951e-27 0.00131791)
(0.00137863 0.000445579 4.60878e-25 0.00137582 5.19992e-27 0.0013772)
(0.00135918 0.000488548 -7.98036e-25 0.00135499 -5.18312e-27 0.00135704)
(0.00130628 0.000508881 1.06956e-24 0.00130058 1.20272e-26 0.00130337)
(0.00124482 0.000515999 5.58413e-28 0.00123753 -1.21447e-26 0.00124111)
(0.00118653 0.000514672 -6.21381e-28 0.00117759 -0 0.00118198)
(0.0011364 0.000507481 7.38517e-28 0.00112575 -1.6577e-26 0.00113098)
(0.0010961 0.000495926 -5.64637e-24 0.00108366 2.17899e-26 0.00108976)
(0.00106569 0.000480908 6.54359e-24 0.00105136 3.67667e-26 0.00105838)
(0.00104448 0.000462967 7.69462e-24 0.00102815 -5.1484e-26 0.00103613)
(0.00103153 0.00044241 -8.65655e-24 0.00101309 2.149e-26 0.00102209)
(0.00102587 0.000419378 1.96251e-23 0.00100518 -7.62328e-26 0.00101526)
(0.00102662 0.000393904 -4.31678e-23 0.00100355 5.1398e-26 0.00101476)
(0.00103298 0.000365924 2.34421e-23 0.00100745 9.82942e-26 0.00101983)
(0.00104435 0.000335341 2.53896e-23 0.00101629 -1.30097e-25 0.00102986)
(0.00106019 0.000301995 -2.68211e-23 0.00102962 5.07505e-28 0.00104436)
(0.00108009 0.000265712 8.55628e-27 0.00104711 4.6152e-26 0.00106297)
(0.00110371 0.000226303 -4.70389e-27 0.00106855 3.77373e-26 0.0010854)
(0.00113077 0.00018359 2.99799e-23 0.00109382 -1.43277e-25 0.00111146)
(0.00116103 0.000137419 -6.0609e-23 0.00112286 9.91291e-26 0.00114101)
(0.00119426 8.7685e-05 -3.98721e-26 0.00115567 1.24808e-25 0.00117393)
(0.00123021 3.43612e-05 2.99763e-23 0.00119223 -7.65402e-26 0.0012101)
(0.00126855 -2.24583e-05 -8.01421e-27 0.00123248 -3.92736e-26 0.00124934)
(0.00130885 -8.25108e-05 -0 0.00127624 -0 0.00129137)
(0.00135045 -0.000145298 -8.7222e-27 0.00132312 -1.60925e-26 0.00133567)
(0.00139238 -0.00021002 -1.26721e-23 0.00137233 4.00968e-26 0.0013814)
(0.0014332 -0.000275466 6.21246e-26 0.00142257 3.09766e-26 0.00142722)
(0.00147081 -0.000339965 1.08463e-23 0.0014717 -3.49379e-26 0.00147103)
(0.0015022 -0.000401309 -2.03791e-29 0.00151654 -5.91537e-28 0.0015097)
(0.00152118 -0.00045179 1.04512e-23 0.00154903 -6.23001e-26 0.00153594)
(0.00152747 -0.000488086 -2.23861e-23 0.00156695 4.44759e-26 0.00154837)
(0.00152389 -0.000513358 -1.16429e-23 0.00157277 6.10911e-26 0.00154966)
(0.00151297 -0.000530281 2.42827e-25 0.00156889 6.98276e-26 0.00154232)
(0.00149672 -0.000540971 5.11758e-23 0.00155738 -1.34568e-25 0.0015284)
(0.00147684 -0.000547148 -2.56272e-25 0.00154011 -8.61241e-26 0.00150975)
(0.00145467 -0.000550134 -2.69522e-23 0.00151864 9.45442e-26 0.00148781)
(0.00143124 -0.000550943 2.70415e-23 0.00149426 -5.14585e-26 0.00146378)
(0.00140732 -0.000550343 -2.73957e-23 0.00146803 -1.7665e-26 0.00143857)
(0.00138352 -0.000548904 -2.70438e-23 0.00144082 1.03571e-25 0.00141294)
(0.00136027 -0.000547045 2.69547e-23 0.00141333 3.28755e-26 0.00138746)
(0.00133794 -0.000545064 2.61463e-23 0.00138618 -9.42066e-26 0.00136261)
(0.00131679 -0.00054317 -2.56231e-23 0.00135986 3.05111e-26 0.00133878)
(0.00129708 -0.000541497 2.43931e-23 0.00133481 -6.13182e-26 0.00131633)
(0.00127905 -0.000540125 -4.6644e-23 0.00131144 3.26381e-26 0.00129556)
(0.00126293 -0.000539088 2.20685e-23 0.00129013 5.47269e-26 0.00127679)
(0.00124899 -0.000538376 -4.3595e-27 0.00127127 -3.24435e-26 0.00126034)
(0.00123756 -0.000537933 5.30453e-27 0.00125527 -2.13548e-26 0.00124659)
(0.00122902 -0.000537653 -8.38165e-24 0.00124258 2.22885e-26 0.00123594)
(0.00122382 -0.000537358 7.54614e-24 0.00123371 3.71965e-26 0.00122888)
(0.00122249 -0.000536761 6.43478e-24 0.00122922 -3.79254e-26 0.00122595)
(0.0012256 -0.0005354 -5.55958e-24 0.00122971 -3.76424e-26 0.00122773)
(0.00123365 -0.000532506 -4.44755e-24 0.00123567 3.77633e-26 0.00123472)
(0.00124667 -0.000526745 3.61056e-24 0.00124714 2.50853e-26 0.00124695)
(0.00126334 -0.000515676 1.29564e-24 0.00126279 -2.49194e-26 0.00126311)
(0.00127856 -0.000494489 -9.43597e-25 0.00127748 -5.46616e-27 0.00127805)
(0.00127754 -0.00045304 -1.02699e-31 0.00127637 1.01994e-26 0.00127698)
(0.00122431 -0.000362829 1.31535e-25 0.00122341 -4.16846e-27 0.00122387)
(0.00110268 -0.000254604 -6.93484e-26 0.00110215 -1.22335e-27 0.00110242)
(0.000991631 -0.00015839 1.48947e-29 0.000991396 9.77709e-28 0.000991517)
(0.00114691 -8.46504e-05 -1.11547e-29 0.00114684 -0 0.00114688)
(0.00236538 -2.39271e-05 6.7719e-31 0.00236537 -0 0.00236538)
(0.00253271 2.55719e-05 3.96277e-31 0.0025327 -0 0.00253271)
(0.0012148 8.94377e-05 -2.1564e-30 0.00121472 -8.93057e-28 0.00121476)
(0.00105718 0.000163473 -2.95836e-26 0.00105692 1.29644e-27 0.00105705)
(0.00118747 0.00025609 5.35051e-26 0.00118682 3.74494e-27 0.00118715)
(0.00133314 0.00036295 8.97809e-29 0.0013318 -5.28769e-27 0.00133248)
(0.00138986 0.000452064 -3.77045e-28 0.00138751 -0 0.0013887)
(0.001368 0.000494556 7.83155e-28 0.00136451 -0 0.00136627)
(0.00131387 0.000514324 -5.59248e-28 0.00130915 1.92137e-26 0.00131153)
(0.00125216 0.00052089 3.10262e-24 0.00124615 -2.0342e-26 0.00124919)
(0.00119429 0.000519062 -3.82895e-24 0.00118692 -1.15743e-26 0.00119064)
(0.001145 0.000511458 4.86882e-24 0.0011362 9.46145e-27 0.00114065)
(0.00110579 0.000499586 -5.74252e-24 0.00109546 -8.13187e-27 0.00110069)
(0.00107656 0.00048432 6.89796e-24 0.0010646 5.33932e-27 0.00107066)
(0.00105655 0.000466164 -7.86938e-24 0.00104282 -2.79945e-26 0.00104978)
(0.00104479 0.000445404 4.34824e-27 0.00102913 3.36444e-26 0.00103707)
(0.00104028 0.000422162 -5.80733e-27 0.00102254 5.04122e-26 0.00103155)
(0.00104214 0.000396446 2.24166e-23 0.00102216 -7.79517e-26 0.00103231)
(0.0010496 0.000368178 -2.42252e-23 0.00102725 1.55017e-26 0.00103862)
(0.00106208 0.000337241 2.61974e-23 0.00103724 -7.72587e-26 0.0010499)
(0.00107905 0.000303457 -5.54346e-23 0.00105168 1.24466e-25 0.00106565)
(0.00110013 0.000266638 5.81044e-23 0.00107026 -2.00188e-26 0.00108552)
(0.00112498 0.000226578 -3.00332e-23 0.00109277 -7.51546e-26 0.00110926)
(0.00115337 0.000183085 -1.14649e-26 0.00111911 6.18785e-26 0.00113668)
(0.00118506 0.000135991 1.66234e-26 0.00114923 -0 0.00116764)
(0.00121983 8.51844e-05 -3.57296e-29 0.00118313 5.40696e-26 0.00120202)
(0.00125743 3.06325e-05 3.07696e-23 0.00122081 -1.2579e-25 0.00123971)
(0.00129754 -2.75671e-05 -3.00515e-23 0.00126223 1.29247e-26 0.00128051)
(0.00133971 -8.91379e-05 3.67763e-31 0.00130722 3.07807e-27 0.00132409)
(0.00138325 -0.000153553 -2.76011e-23 0.00135541 1.013e-25 0.00136991)
(0.00142713 -0.000219963 1.30795e-23 0.00140602 1.79457e-26 0.00141708)
(0.00146984 -0.000287077 8.01629e-26 0.00145772 -1.21146e-26 0.00146414)
(0.00150917 -0.00035311 5.58381e-24 0.00150835 -1.60654e-26 0.00150889)
(0.00154199 -0.00041569 4.77143e-26 0.00155451 -2.32163e-26 0.0015481)
(0.00156192 -0.0004669 -5.29441e-24 0.0015877 6.63538e-26 0.0015744)
(0.00156868 -0.000503421 2.29233e-23 0.00160555 -8.58649e-26 0.00158653)
(0.00156519 -0.000528567 -1.21379e-23 0.00161071 -1.46092e-26 0.00158727)
(0.00155403 -0.000545126 -1.29227e-26 0.00160576 2.68844e-26 0.00157917)
(0.00153725 -0.00055529 2.73286e-27 0.00159292 -6.14734e-26 0.00156437)
(0.00151661 -0.000560836 -2.67999e-23 0.00157418 1.22035e-25 0.00154472)
(0.00149348 -0.000563124 2.75917e-23 0.0015512 6.50928e-26 0.00152173)
(0.00146893 -0.000563196 2.76997e-23 0.00152533 -1.08161e-25 0.00149658)
(0.00144375 -0.00056184 -2.54625e-25 0.00149766 -1.25109e-25 0.00147023)
(0.00141857 -0.00055964 -2.79784e-23 0.00146909 4.25788e-26 0.00144342)
(0.00139385 -0.000557026 -2.86558e-27 0.00144033 -1.03293e-26 0.00141674)
(0.00136997 -0.000554305 -2.68558e-23 0.00141199 2.63112e-26 0.00139068)
(0.00134722 -0.000551691 2.55736e-25 0.00138454 1.36166e-25 0.00136564)
(0.00132586 -0.000549324 2.5326e-23 0.00135843 -2.13301e-26 0.00134194)
(0.00130614 -0.000547289 4.08495e-27 0.00133401 -6.43215e-26 0.00131991)
(0.0012883 -0.00054562 -1.85701e-27 0.00131166 -8.05446e-26 0.00129984)
(0.00127262 -0.000544311 -2.08973e-23 0.00129174 1.72259e-25 0.00128207)
(0.00125942 -0.000543309 3.85819e-23 0.00127462 6.63441e-27 0.00126693)
(0.00124906 -0.000542515 -8.89956e-24 0.00126074 -1.21527e-25 0.00125482)
(0.00124201 -0.000541763 -1.2821e-25 0.00125057 -5.40145e-26 0.00124623)
(0.00123879 -0.000540777 -1.34441e-23 0.00124466 4.57481e-27 0.00124167)
(0.00123997 -0.000539132 1.24326e-25 0.0012436 1.02575e-25 0.00124175)
(0.00124609 -0.000536108 4.73889e-24 0.00124793 -2.25509e-27 0.00124698)
(0.00125724 -0.000530416 -1.4119e-27 0.00125774 -4.75198e-27 0.00125747)
(0.00127223 -0.000519659 1.34768e-24 0.00127183 -2.34983e-26 0.00127201)
(0.0012863 -0.000499088 -9.81842e-25 0.00128541 -1.0167e-26 0.00128584)
(0.00128529 -0.000458577 -1.89096e-32 0.00128429 -3.12539e-28 0.00128478)
(0.00123399 -0.000369237 -1.37692e-25 0.0012332 8.17815e-27 0.00123359)
(0.00111391 -0.00025945 7.21691e-26 0.00111344 4.80225e-27 0.00111367)
(0.00100326 -0.000161789 1.02043e-26 0.00100305 -4.15728e-27 0.00100315)
(0.00115901 -8.64534e-05 -6.27702e-27 0.00115894 -2.14114e-28 0.00115897)
(0.00239173 -2.44405e-05 3.49884e-28 0.00239173 1.93062e-28 0.00239173)
(0.00257187 2.63085e-05 -0 0.00257186 -0 0.00257186)
(0.00123433 9.21107e-05 1.15327e-29 0.00123424 -1.35226e-27 0.00123428)
(0.00107908 0.000168716 -3.09487e-26 0.00107878 1.95794e-27 0.00107893)
(0.00121238 0.000263859 5.61323e-26 0.00121165 5.72433e-27 0.00121201)
(0.001359 0.000374953 -1.55855e-31 0.0013575 -1.68108e-26 0.00135825)
(0.00141216 0.00046459 -5.58818e-25 0.00140954 2.13034e-26 0.00141085)
(0.00138773 0.000507162 1.68461e-24 0.00138385 1.26819e-26 0.00138578)
(0.00133264 0.000526888 -1.17281e-24 0.00132738 -4.98023e-26 0.00133)
(0.00127142 0.000533334 5.16564e-28 0.00126469 2.49142e-26 0.00126804)
(0.00121501 0.00053126 7.01873e-28 0.00120672 -0 0.00121085)
(0.00116774 0.000523249 -2.25462e-27 0.00115778 -3.37837e-26 0.00116274)
(0.00113076 0.000510797 -6.19589e-24 0.00111901 2.47008e-27 0.00112486)
(0.00110384 0.000494811 -1.12313e-25 0.00109016 8.75264e-26 0.00109697)
(0.00108614 0.000475828 8.31802e-24 0.00107036 6.76601e-26 0.00107821)
(0.00107664 0.000454126 1.91395e-23 0.00105859 -1.42255e-25 0.00106756)
(0.00107435 0.000429825 -2.12e-23 0.00105384 -8.02893e-26 0.00106403)
(0.00107838 0.000402928 2.54581e-27 0.00105524 9.94383e-26 0.00106674)
(0.00108799 0.000373363 -2.81742e-27 0.00106208 -0 0.00107495)
(0.00110259 0.000340997 3.11956e-27 0.0010738 -0 0.00108809)
(0.00112168 0.00030566 6.7476e-28 0.00108999 -0 0.00110571)
(0.00114488 0.000267155 -9.06477e-27 0.00111037 -0 0.00112748)
(0.00117188 0.000225281 4.96985e-27 0.00113476 -7.97051e-26 0.00115315)
(0.00120243 0.000179847 -3.20701e-23 0.00116309 1.44266e-25 0.00118257)
(0.00123631 0.000130694 3.23216e-23 0.00119534 2.51448e-26 0.00121561)
(0.00127332 7.77171e-05 -1.20457e-26 0.00123153 -9.14917e-27 0.00125218)
(0.00131319 2.09029e-05 3.18466e-23 0.00127169 -1.56771e-25 0.00129217)
(0.00135561 -3.96291e-05 -3.10594e-23 0.00131576 -7.87841e-27 0.00133541)
(0.00140009 -0.00010357 6.191e-31 0.00136359 5.44632e-27 0.00138156)
(0.00144593 -0.00017035 -2.84348e-23 0.00141474 8.17208e-26 0.00143007)
(0.00149206 -0.000239063 8.79051e-26 0.00146838 1.50518e-25 0.00147999)
(0.00153686 -0.000308341 2.4944e-23 0.00152308 -7.40857e-26 0.0015298)
(0.001578 -0.00037631 -2.70579e-27 0.00157647 -6.83952e-26 0.00157716)
(0.00161211 -0.000440485 -4.98999e-27 0.00162497 -0 0.00161859)
(0.00163245 -0.000492723 1.78244e-26 0.00165969 6.98329e-26 0.00164624)
(0.00163881 -0.000529657 2.34144e-23 0.00167824 -7.88054e-26 0.00165877)
(0.00163431 -0.000554737 -2.33822e-25 0.00168342 -1.44449e-25 0.00165915)
(0.00162171 -0.000570877 -2.61445e-23 0.00167795 1.63728e-25 0.00165014)
(0.00160321 -0.000580372 2.68546e-23 0.00166414 5.02418e-27 0.00163399)
(0.00158069 -0.000585091 -2.62784e-25 0.00164411 -2.46663e-25 0.0016127)
(0.00155561 -0.000586461 -5.67821e-23 0.00161956 2.22841e-25 0.00158786)
(0.00152907 -0.000585579 2.88824e-23 0.00159192 1.01521e-25 0.00156074)
(0.00150191 -0.000583272 2.37022e-26 0.00156232 -8.40916e-26 0.00153233)
(0.00147478 -0.000580152 -4.57104e-27 0.0015317 -0 0.00150343)
(0.00144815 -0.000576669 5.36463e-30 0.00150081 -9.88794e-26 0.00147464)
(0.00142239 -0.000573142 -2.79e-23 0.00147025 3.31392e-26 0.00144646)
(0.00139779 -0.000569791 2.64663e-25 0.00144054 1.84413e-25 0.00141928)
(0.00137459 -0.00056676 2.63997e-23 0.00141211 -2.74512e-26 0.00139345)
(0.00135303 -0.000564134 -6.94709e-27 0.00138534 -8.67652e-26 0.00136927)
(0.00133334 -0.00056194 4.47203e-30 0.00136061 -1.07841e-25 0.00134704)
(0.00131576 -0.000560176 -2.1883e-23 0.00133825 1.22033e-25 0.00132706)
(0.0013006 -0.000558784 2.03629e-23 0.00131866 1.28521e-25 0.00130967)
(0.00128819 -0.00055766 9.09494e-24 0.00130223 -2.01365e-25 0.00129525)
(0.00127898 -0.000556633 -1.62901e-23 0.00128944 2.37104e-26 0.00128424)
(0.00127344 -0.000555437 7.15802e-24 0.0012808 7.74972e-26 0.00127714)
(0.00127213 -0.000553625 1.71375e-27 0.00127688 1.90968e-26 0.00127452)
(0.00127554 -0.000550448 4.88671e-24 0.00127819 -6.26793e-26 0.00127688)
(0.00128388 -0.00054462 -3.97358e-24 0.00128492 -2.89755e-27 0.00128441)
(0.00129625 -0.00053378 1.43067e-24 0.00129617 2.14099e-27 0.00129622)
(0.00130839 -0.000513218 -1.04201e-24 0.00130766 -1.35719e-26 0.00130803)
(0.00130702 -0.000472833 -4.0668e-28 0.00130607 1.31023e-26 0.00130655)
(0.00125776 -0.000383498 -2.05328e-28 0.00125697 -0 0.00125736)
(0.00113727 -0.000268829 2.26368e-28 0.00113679 -3.37939e-27 0.00113703)
(0.00102382 -0.000167851 -1.08619e-26 0.0010236 3.10705e-27 0.00102371)
(0.00117518 -8.91896e-05 6.59455e-27 0.00117511 2.84354e-28 0.00117514)
(0.00241824 -2.51153e-05 -3.66647e-28 0.00241824 -2.59953e-28 0.00241824)
(0.00260161 2.68428e-05 -1.35204e-30 0.00260161 2.69624e-28 0.00260161)
(0.00124879 9.40617e-05 5.61553e-27 0.0012487 -7.69634e-28 0.00124874)
(0.00109458 0.00017242 -1.09843e-26 0.00109427 -2.26727e-27 0.00109443)
(0.00122883 0.000269088 -6.06256e-29 0.00122809 3.43384e-27 0.00122847)
(0.00137433 0.000382301 -0 0.00137281 -0 0.00137357)
(0.00142393 0.000471715 2.67108e-28 0.00142129 -0 0.00142261)
(0.00139718 0.000513788 3.62041e-28 0.00139328 -3.36604e-26 0.00139523)
(0.00134124 0.000532922 -2.56518e-24 0.00133597 3.41409e-26 0.0013386)
(0.00128021 0.00053878 3.284e-24 0.00127348 6.67573e-26 0.00127685)
(0.00122475 0.000536215 -2.46872e-30 0.00121646 -1.06591e-25 0.00122061)
(0.00117887 0.00052781 -5.36384e-24 0.00116892 4.32576e-26 0.0011739)
(0.00114356 0.000515035 6.33169e-24 0.0011318 1.5404e-25 0.00113769)
(0.00111841 0.000498756 1.51846e-23 0.00110468 -7.20356e-26 0.00111156)
(0.00110249 0.000479472 2.2375e-25 0.00108661 -1.32146e-25 0.00109457)
(0.00109474 0.000457441 2.17023e-25 0.00107653 -9.76114e-26 0.00108565)
(0.00109416 0.000432761 -2.20112e-23 0.00107341 1.15406e-25 0.00108381)
(0.00109987 0.000405412 2.44374e-23 0.00107638 2.47545e-27 0.00108815)
(0.00111114 0.00037531 -2.6353e-23 0.00108475 2.91601e-27 0.00109799)
(0.0011274 0.000342298 2.84233e-23 0.00109799 -1.47185e-26 0.00111274)
(0.00114817 0.000306193 -2.99168e-23 0.00111569 -8.16248e-26 0.00113198)
(0.00117309 0.000266785 6.75936e-30 0.0011376 1.21453e-25 0.0011554)
(0.00120187 0.00022386 -0 0.00116356 -0 0.00118279)
(0.00123428 0.000177215 8.15006e-27 0.00119352 1.0253e-25 0.00121398)
(0.0012701 0.000126683 3.33523e-23 0.00122747 -1.72357e-25 0.00124888)
(0.00130913 7.21558e-05 -3.32241e-23 0.00126546 -4.36077e-26 0.0012874)
(0.00135113 1.36212e-05 -1.05451e-26 0.00130753 1.10803e-25 0.00132944)
(0.00139574 -4.879e-05 1.14144e-26 0.00135365 -0 0.00137481)
(0.00144247 -0.000114745 5.00819e-30 0.00140364 9.84199e-26 0.00142318)
(0.00149057 -0.00018363 2.92348e-23 0.00145707 -1.79477e-25 0.00147394)
(0.0015389 -0.000254474 -2.7564e-23 0.00151308 -1.9312e-26 0.00152609)
(0.00158574 -0.000325809 -2.66749e-26 0.00157016 9.32952e-26 0.00157802)
(0.00162861 -0.000395621 6.15646e-27 0.00162584 -2.09163e-26 0.00162725)
(0.00166394 -0.000461242 -5.21487e-24 0.0016763 8.15566e-26 0.0016701)
(0.00168472 -0.000514273 1.69811e-23 0.00171221 -1.79294e-25 0.0016984)
(0.0016908 -0.000551352 -3.62129e-23 0.00173109 1.58466e-25 0.00171084)
(0.00168549 -0.000576103 2.56447e-23 0.00173591 1.53299e-25 0.00171058)
(0.0016717 -0.000591589 2.65451e-23 0.00172955 -2.86645e-25 0.0017005)
(0.00165174 -0.000600212 -2.78343e-23 0.00171447 -1.57143e-26 0.00168298)
(0.00162759 -0.000603926 -1.86705e-26 0.00169288 2.18683e-25 0.00166011)
(0.00160074 -0.000604222 2.90445e-23 0.0016666 -3.03904e-25 0.00163355)
(0.00157238 -0.000602236 -5.91227e-23 0.00163709 2.65625e-25 0.00160463)
(0.00154337 -0.000598828 5.94788e-23 0.00160557 -2.27774e-26 0.00157437)
(0.00151437 -0.000594629 -2.98271e-23 0.00157298 -1.66646e-25 0.00154359)
(0.00148588 -0.000590101 -1.23672e-26 0.0015401 1.12592e-25 0.00151292)
(0.00145826 -0.000585571 2.98648e-26 0.00150757 -0 0.00148285)
(0.00143181 -0.000581263 -1.02663e-26 0.00147588 1.34305e-25 0.00145379)
(0.00140677 -0.000577323 2.69294e-23 0.00144548 -1.63684e-25 0.00142608)
(0.00138336 -0.000573832 -2.59688e-23 0.00141674 -8.70399e-26 0.00140002)
(0.00136181 -0.000570831 8.56883e-31 0.00139002 -2.75009e-26 0.00137589)
(0.00134235 -0.000568304 -2.26109e-23 0.00136567 1.58914e-25 0.00135398)
(0.00132526 -0.0005662 2.10604e-23 0.00134404 9.59222e-26 0.00133463)
(0.00131088 -0.000564416 -1.89033e-27 0.00132553 -1.83887e-25 0.00131819)
(0.00129963 -0.00056279 -8.36825e-24 0.0013106 5.2863e-27 0.0013051)
(0.00129198 -0.000561062 1.30341e-25 0.00129976 1.28287e-25 0.00129586)
(0.00128851 -0.000558818 6.31388e-24 0.00129359 7.15318e-26 0.00129104)
(0.00128974 -0.000555349 5.07722e-24 0.00129264 -1.32077e-25 0.00129119)
(0.00129596 -0.000549442 -4.1286e-24 0.00129718 -4.26066e-26 0.00129657)
(0.00130641 -0.000538815 -1.91333e-27 0.00130643 8.35257e-26 0.00130641)
(0.00131715 -0.000518851 1.02754e-24 0.00131646 -4.10742e-26 0.0013168)
(0.00131557 -0.000479452 -6.80866e-25 0.00131461 -5.08732e-26 0.00131509)
(0.00126818 -0.000391072 -3.09247e-25 0.00126735 5.69264e-26 0.00126776)
(0.0011496 -0.000274639 2.2246e-25 0.00114909 -1.43087e-27 0.00114935)
(0.00103675 -0.00017191 -3.25309e-26 0.00103652 -8.30252e-27 0.00103664)
(0.00118766 -9.12348e-05 1.3537e-27 0.00118758 1.49437e-27 0.00118762)
(0.00244289 -2.56642e-05 -3.77623e-28 0.00244289 -2.97472e-29 0.00244289)
(0.0026387 2.75722e-05 -4.0982e-28 0.00263869 7.10193e-28 0.0026387)
(0.00126816 9.67972e-05 1.30485e-26 0.00126806 -1.37915e-27 0.00126811)
(0.00111729 0.000177951 -2.28925e-26 0.00111697 -7.07532e-27 0.00111713)
(0.00125496 0.000277315 -2.34741e-28 0.00125418 8.70844e-27 0.00125457)
(0.00140171 0.000395206 3.67187e-28 0.00140009 -0 0.0014009)
(0.00144778 0.000484964 5.09525e-28 0.00144498 3.62858e-26 0.00144638)
(0.00141861 0.000526958 1.91058e-24 0.00141448 -3.77684e-26 0.00141654)
(0.00136192 0.000545867 -2.57469e-24 0.00135633 -8.30703e-26 0.00135912)
(0.00130147 0.000551407 -1.2129e-27 0.00129432 8.04225e-26 0.00129789)
(0.00124733 0.000548346 -0 0.0012385 -0 0.00124291)
(0.00120319 0.000539325 -6.52434e-28 0.00119256 -0 0.00119787)
(0.0011698 0.000525855 7.30817e-28 0.00115721 -0 0.0011635)
(0.00114664 0.000508814 -3.94872e-27 0.0011319 -0 0.00113926)
(0.0011327 0.000488695 8.99346e-31 0.00111562 1.17072e-25 0.00112415)
(0.00112691 0.000465752 2.09058e-23 0.00110725 -1.48974e-26 0.00111707)
(0.00112824 0.000440078 2.1475e-25 0.00110578 -4.05069e-25 0.001117)
(0.00113583 0.000411641 -5.10286e-23 0.00111035 1.72978e-25 0.00112307)
(0.00114898 0.000380354 2.75713e-23 0.0011203 2.84138e-25 0.00113462)
(0.00116711 0.000346049 -7.30587e-27 0.0011351 -1.55095e-25 0.00115108)
(0.00118978 0.000308533 8.02211e-27 0.00115438 -0 0.00117206)
(0.00121663 0.00026759 -0 0.00117792 -0 0.00119725)
(0.00124739 0.000223001 -0 0.00120558 -0 0.00122645)
(0.00128184 0.000174559 -0 0.00123734 -0 0.00125955)
(0.00131978 0.000122097 -1.16195e-26 0.00127322 -0 0.00129646)
(0.001361 6.55089e-05 1.26444e-26 0.00131329 -0 0.0013371)
(0.00140525 4.79253e-06 -0 0.0013576 -0 0.00138138)
(0.0014522 -5.99038e-05 -0 0.00140615 -0 0.00142912)
(0.00150131 -0.000128218 -0 0.00145875 -0 0.00147997)
(0.00155181 -0.000199494 -1.73195e-26 0.00151495 -0 0.00153333)
(0.00160249 -0.000272693 1.84472e-26 0.00157384 -5.78308e-26 0.00158812)
(0.00165155 -0.000346265 -1.30706e-23 0.00163382 6.8825e-26 0.00164265)
(0.00169632 -0.000418076 6.06631e-24 0.00169226 6.18428e-26 0.00169427)
(0.00173307 -0.000485312 5.4237e-24 0.00174513 7.15188e-27 0.00173911)
(0.00175438 -0.000539336 1.15588e-23 0.00178262 -1.27364e-25 0.00176854)
(0.0017602 -0.000576762 -1.2451e-23 0.00180219 -6.48496e-27 0.00178124)
(0.00175403 -0.000601381 -4.63791e-26 0.00180698 -6.67294e-26 0.00178056)
(0.00173895 -0.000616393 -2.72914e-23 0.00180003 2.21705e-25 0.00176955)
(0.00171742 -0.000624314 2.86428e-23 0.00178392 -1.05766e-25 0.00175073)
(0.00169152 -0.000627184 -2.92004e-23 0.00176098 9.42709e-26 0.00172631)
(0.00166284 -0.000626557 3.01941e-23 0.00173311 4.60514e-26 0.00169803)
(0.0016326 -0.000623621 -1.14463e-26 0.00170186 -1.33815e-25 0.00166728)
(0.00160171 -0.000619268 -2.50765e-26 0.00166847 -0 0.00163513)
(0.00157084 -0.000614154 1.14626e-26 0.00163394 -1.55168e-25 0.00160243)
(0.0015405 -0.000608758 -3.02449e-23 0.00159906 3.67151e-25 0.00156981)
(0.00151107 -0.000603417 5.97883e-23 0.00156449 -1.16795e-25 0.0015378)
(0.00148283 -0.000598363 -2.92879e-23 0.00153073 -2.35101e-25 0.0015068)
(0.00145601 -0.000593745 3.20673e-27 0.00149824 1.39555e-25 0.00147714)
(0.00143083 -0.000589649 7.41088e-27 0.0014674 -0 0.00144913)
(0.00140749 -0.00058611 8.00948e-30 0.00143855 -1.71933e-25 0.00142303)
(0.00138622 -0.000583119 -2.35842e-23 0.00141203 1.94632e-25 0.00139914)
(0.00136728 -0.000580623 2.2002e-23 0.00138819 1.16937e-25 0.00137774)
(0.00135098 -0.000578521 5.37539e-30 0.00136742 -1.35192e-25 0.00135921)
(0.00133771 -0.000576651 2.29402e-27 0.00135015 -0 0.00134394)
(0.00132793 -0.000574753 2.98812e-30 0.00133688 -0 0.00133241)
(0.00132219 -0.000572416 -1.85665e-27 0.00132817 -0 0.00132518)
(0.00132101 -0.000568958 -1.66335e-27 0.00132455 9.48324e-26 0.00132278)
(0.00132468 -0.000563151 4.24163e-24 0.00132632 -1.02006e-25 0.0013255)
(0.00133255 -0.000552702 -3.2998e-24 0.00133283 -6.00488e-29 0.00133269)
(0.00134109 -0.000532996 1.09181e-24 0.00134053 4.62653e-26 0.00134081)
(0.00133861 -0.000493997 -5.76838e-26 0.00133769 -6.57979e-26 0.00133815)
(0.00129277 -0.000406042 -3.79945e-25 0.00129193 2.30236e-27 0.00129235)
(0.00117378 -0.000284639 -1.80184e-29 0.00117326 1.73128e-26 0.00117352)
(0.00105855 -0.000178539 1.19489e-26 0.00105831 -1.89956e-27 0.00105843)
(0.00120538 -9.42831e-05 -4.2549e-27 0.00120531 -1.74191e-27 0.00120534)
(0.00247289 -2.6431e-05 -3.91574e-28 0.00247289 3.47683e-28 0.00247289)
(0.00267111 2.81732e-05 1.39464e-30 0.0026711 -8.12511e-28 0.0026711)
(0.00128392 9.89806e-05 -1.20756e-26 0.00128382 2.31467e-27 0.00128387)
(0.00113407 0.000182082 2.39302e-26 0.00113374 -1.69129e-27 0.00113391)
(0.00127247 0.000283125 -1.61413e-25 0.00127165 3.6184e-29 0.00127206)
(0.00141777 0.00040333 2.98979e-25 0.00141609 5.13666e-26 0.00141693)
(0.00146023 0.000492912 6.38015e-25 0.00145733 -6.04172e-26 0.00145878)
(0.00142896 0.000534495 -9.32871e-25 0.0014247 -4.82185e-26 0.00142683)
(0.00137179 0.000552957 3.06939e-27 0.00136603 4.72136e-26 0.00136891)
(0.00131201 0.000558074 6.81404e-31 0.00130464 -0 0.00130832)
(0.0012593 0.000554667 -2.31379e-27 0.00125019 -6.22475e-26 0.00125475)
(0.00121702 0.000545338 -5.91069e-24 0.001206 6.27323e-26 0.00121151)
(0.00118568 0.000531561 6.97593e-24 0.00117259 9.89392e-26 0.00117914)
(0.00116462 0.00051419 -3.40311e-30 0.00114924 -9.76262e-26 0.00115693)
(0.00115278 0.000493697 7.32378e-27 0.00113487 -0 0.00114383)
(0.00114903 0.000470315 -1.42589e-26 0.00112835 -0 0.0011387)
(0.00115237 0.000444114 -6.32206e-30 0.00112867 -0 0.00114053)
(0.00116194 0.000415052 2.50294e-26 0.00113498 -0 0.00114847)
(0.00117706 0.000383018 -1.93721e-26 0.00114662 -0 0.00116185)
(0.00119717 0.000347834 -0 0.00116312 -0 0.00118015)
(0.00122183 0.000309299 1.35476e-26 0.00118411 -0 0.00120298)
(0.00125073 0.00026718 -2.98336e-26 0.0012094 -0 0.00123008)
(0.0012836 0.000221251 1.63937e-26 0.00123888 -0 0.00126126)
(0.00132023 0.000171298 -0 0.00127256 -0 0.00129641)
(0.00136042 0.00011715 -0 0.00131047 -0 0.00133547)
(0.00140399 5.87012e-05 -0 0.00135272 -0 0.00137837)
(0.00145068 -4.04371e-06 -2.34685e-26 0.00139936 -0 0.00142504)
(0.00150012 -7.09203e-05 2.54139e-26 0.0014504 -0 0.00147528)