/*--------------------------------*- C++ -*----------------------------------*\
| =========                 |                                                 |
| \\      /  F ield         | OpenFOAM: The Open Source CFD Toolbox           |
|  \\    /   O peration     | Version:  2412                                  |
|   \\  /    A nd           | Website:  www.openfoam.com                      |
|    \\/     M anipulation  |                                                 |
\*---------------------------------------------------------------------------*/
FoamFile
{
    version     2.0;
    format      ascii;
    arch        "LSB;label=32;scalar=64";
    class       volVectorField;
    location    "2000";
    object      U;
}
// * * * * * * * * * * * * * * * * * * * * * * * * * * * * * * * * * * * * * //

dimensions      [0 1 -1 0 0 0 0];

internalField   nonuniform List<vector> 
32240
(
(0.031499 -1.50553e-06 0)
(0.091806 -1.11329e-05 0)
(0.150333 -2.95283e-05 0)
(0.203746 -5.61856e-05 0)
(0.248013 -8.79684e-05 0)
(0.28161 -0.000121878 0)
(0.306791 -0.000156332 0)
(0.326248 -0.000191487 4.0081e-26)
(0.341663 -0.000226981 3.12513e-26)
(0.354106 -0.000262538 -5.41417e-26)
(0.364288 -0.000298028 0)
(0.372713 -0.000333436 0)
(0.379748 -0.00036884 -2.82212e-26)
(0.38567 -0.000404392 2.49594e-26)
(0.390689 -0.000440298 0)
(0.394968 -0.000476797 0)
(0.398634 -0.000514149 -1.90716e-26)
(0.401783 -0.000552613 1.76058e-26)
(0.40449 -0.000592437 0)
(0.406811 -0.000633843 0)
(0.408786 -0.000677014 0)
(0.410444 -0.000722074 0)
(0.411803 -0.000769061 -2.64361e-26)
(0.412868 -0.000817889 6.14937e-26)
(0.413636 -0.000868294 -3.51591e-26)
(0.414095 -0.000919761 -5.72866e-26)
(0.41422 -0.000971419 5.74327e-26)
(0.413975 -0.0010219 0)
(0.413312 -0.00106914 0)
(0.412169 -0.00111016 0)
(0.410465 -0.00114067 0)
(0.408102 -0.00115467 0)
(0.404961 -0.0011441 0)
(0.401277 -0.00110387 1.02853e-25)
(0.397517 -0.00104388 8.315e-27)
(0.393764 -0.00097142 1.21515e-25)
(0.390063 -0.000891978 -2.24225e-25)
(0.386437 -0.00080955 0)
(0.382892 -0.000727006 0)
(0.379423 -0.000646354 0)
(0.376017 -0.000568961 0)
(0.372659 -0.000495714 0)
(0.369327 -0.000427154 0)
(0.365997 -0.000363578 0)
(0.362643 -0.000305105 0)
(0.359236 -0.000251737 0)
(0.355743 -0.000203394 0)
(0.352126 -0.000159944 0)
(0.34834 -0.000121224 -3.63969e-25)
(0.344333 -8.70563e-05 3.88006e-25)
(0.340037 -5.72588e-05 2.11286e-25)
(0.335369 -3.16558e-05 -2.30626e-25)
(0.33022 -1.00849e-05 0)
(0.324444 7.59886e-06 0)
(0.317842 2.15158e-05 0)
(0.310128 3.17586e-05 0)
(0.300883 3.83881e-05 0)
(0.289463 4.14423e-05 0)
(0.27484 4.09547e-05 0)
(0.255281 3.69633e-05 0)
(0.227831 2.93519e-05 3.40293e-25)
(0.189476 1.92777e-05 -4.50358e-25)
(0.141018 9.1537e-06 0)
(0.0865273 2.51164e-06 0)
(0.0297791 -1.80759e-07 0)
(0.0322981 -4.41219e-07 -1.89325e-25)
(0.0939349 -9.86438e-06 2.62235e-25)
(0.153496 -3.06082e-05 0)
(0.207553 -6.33919e-05 0)
(0.251951 -0.000104236 -1.27998e-24)
(0.285378 -0.000148967 9.79405e-25)
(0.310307 -0.000195053 -7.65211e-25)
(0.329479 -0.000242285 6.14943e-25)
(0.344603 -0.000289913 0)
(0.356763 -0.000337402 0)
(0.366682 -0.000384474 0)
(0.374869 -0.000431047 -6.25441e-25)
(0.381695 -0.000477183 5.46558e-25)
(0.387434 -0.000523057 4.83275e-25)
(0.392297 -0.000568914 -4.32344e-25)
(0.396443 -0.000615045 7.81374e-25)
(0.399995 -0.000661753 -1.42873e-24)
(0.403045 -0.000709332 6.60134e-25)
(0.405666 -0.000758047 6.14438e-25)
(0.407909 -0.000808113 -5.79869e-25)
(0.409812 -0.000859677 0)
(0.411403 -0.000912793 0)
(0.412695 -0.000967389 5.07458e-25)
(0.413693 -0.00102323 -9.90455e-25)
(0.414392 -0.00107985 4.23055e-27)
(0.414776 -0.00113649 4.80922e-25)
(0.414819 -0.001192 0)
(0.414483 -0.00124474 0)
(0.413717 -0.00129238 0)
(0.412455 -0.00133174 -2.35837e-25)
(0.410615 -0.00135861 4.37027e-27)
(0.408097 -0.00136755 2.45074e-25)
(0.404777 -0.00135163 0)
(0.40091 -0.00130607 2.34436e-25)
(0.396983 -0.00123934 -4.55828e-25)
(0.393079 -0.00115737 -2.1645e-25)
(0.389244 -0.00106532 4.09072e-27)
(0.3855 -0.000967485 8.3869e-25)
(0.381852 -0.000867293 -1.50346e-27)
(0.378295 -0.000767427 -4.0862e-25)
(0.374814 -0.000669923 4.07548e-25)
(0.371394 -0.000576287 -4.08269e-25)
(0.368011 -0.00048759 -4.1487e-25)
(0.364643 -0.000404561 4.20447e-25)
(0.361263 -0.00032766 4.34827e-25)
(0.357841 -0.000257143 -4.46765e-25)
(0.354346 -0.000193112 4.69904e-25)
(0.35074 -0.000135559 -9.85184e-25)
(0.346979 -8.44006e-05 5.21123e-25)
(0.343012 -3.95036e-05 0)
(0.338774 -7.12477e-07 0)
(0.334185 3.21347e-05 -3.3435e-25)
(0.329139 5.91892e-05 3.69556e-25)
(0.323495 8.05809e-05 4.19179e-25)
(0.317058 9.64035e-05 -4.79777e-25)
(0.309551 0.000106703 -5.65059e-25)
(0.300564 0.000111463 6.78395e-25)
(0.289465 0.00011061 4.21711e-25)
(0.275235 0.000104042 -5.42158e-25)
(0.25615 9.16597e-05 0)
(0.229233 7.31077e-05 5.04175e-25)
(0.191233 5.00299e-05 -6.75131e-25)
(0.142639 2.67892e-05 0)
(0.0876348 9.81665e-06 0)
(0.0301739 1.12444e-06 0)
(0.0325804 -9.82865e-07 0)
(0.0948031 -1.01493e-05 0)
(0.154912 -2.92735e-05 -1.28673e-24)
(0.209362 -5.85299e-05 1.08844e-24)
(0.253881 -9.41036e-05 0)
(0.287243 -0.000132372 0)
(0.312046 -0.000171269 0)
(0.331067 -0.000210769 0)
(0.346034 -0.000250402 1.34431e-24)
(0.358042 -0.000289852 -1.12587e-24)
(0.367823 -0.000329002 9.59522e-25)
(0.375888 -0.000367891 -8.27678e-25)
(0.382608 -0.000406679 7.24715e-25)
(0.388258 -0.000445608 -6.40952e-25)
(0.393046 -0.00048497 0)
(0.397129 -0.000525081 0)
(0.400628 -0.000566263 9.56989e-25)
(0.403635 -0.000608835 -8.85464e-25)
(0.406218 -0.000653096 8.32139e-25)
(0.408429 -0.000699313 -1.57426e-24)
(0.410304 -0.000747704 1.50633e-24)
(0.411867 -0.000798412 -7.26361e-25)
(0.413133 -0.000851477 0)
(0.414104 -0.000906783 0)
(0.414774 -0.000963996 0)
(0.415126 -0.00102248 6.96404e-25)
(0.415132 -0.00108117 -6.98692e-25)
(0.414753 -0.00113842 0)
(0.413935 -0.00119182 -7.29461e-25)
(0.412612 -0.00123788 3.70403e-25)
(0.410699 -0.00127181 -2.40263e-27)
(0.408094 -0.00128704 1.98288e-25)
(0.404674 -0.00127505 -1.53496e-27)
(0.400703 -0.00123005 -2.08111e-25)
(0.396683 -0.00116231 8.12429e-25)
(0.392696 -0.00107951 -4.00055e-25)
(0.38879 -0.000987773 0)
(0.384986 -0.00089179 0)
(0.381287 -0.000795067 -7.90739e-25)
(0.377688 -0.00070016 7.84434e-25)
(0.374175 -0.000608862 7.93705e-25)
(0.37073 -0.000522381 5.81679e-27)
(0.36733 -0.000441482 -8.0598e-25)
(0.363951 -0.000366602 0)
(0.360568 -0.000297937 -8.48872e-25)
(0.357149 -0.000235515 -5.00623e-27)
(0.353664 -0.000179246 9.07137e-25)
(0.350075 -0.000128964 0)
(0.346339 -8.44588e-05 0)
(0.342406 -4.54998e-05 -1.07995e-24)
(0.338212 -1.18539e-05 2.32734e-24)
(0.333678 1.66976e-05 -6.32877e-25)
(0.328701 4.03455e-05 1.83666e-27)
(0.323143 5.92416e-05 -1.58513e-24)
(0.316813 7.34896e-05 -1.65118e-27)
(0.309439 8.31385e-05 1.06344e-24)
(0.300619 8.81769e-05 0)
(0.289729 8.85354e-05 7.9332e-25)
(0.275761 8.40984e-05 -1.0208e-24)
(0.256995 7.47116e-05 0)
(0.230433 5.9924e-05 -9.5349e-25)
(0.192678 4.10334e-05 1.28352e-24)
(0.144 2.16197e-05 7.87005e-25)
(0.0886065 7.55739e-06 -1.3198e-24)
(0.0305482 5.69924e-07 3.19779e-25)
(0.0331355 -7.88802e-07 0)
(0.0962949 -1.04085e-05 0)
(0.157132 -3.06335e-05 -1.91773e-24)
(0.212025 -6.16904e-05 1.61296e-24)
(0.256596 -9.93936e-05 0)
(0.289802 -0.000139873 -1.91461e-24)
(0.314407 -0.000181074 2.97273e-24)
(0.333221 -0.000222935 -1.1893e-24)
(0.347985 -0.000264976 0)
(0.359803 -0.000306912 0)
(0.369412 -0.000348672 0)
(0.377326 -0.000390333 -1.19644e-24)
(0.383916 -0.000432077 -8.39641e-28)
(0.389456 -0.000474158 9.25565e-25)
(0.394152 -0.000516874 1.66105e-24)
(0.398157 -0.000560541 -1.50526e-24)
(0.401589 -0.000605481 0)
(0.404538 -0.000651999 0)
(0.40707 -0.000700376 0)
(0.409234 -0.000750849 0)
(0.411066 -0.000803595 0)
(0.412587 -0.000858703 0)
(0.413811 -0.000916141 -1.0258e-24)
(0.414738 -0.00097571 1.00671e-24)
(0.41536 -0.00103698 0)
(0.41566 -0.0010992 9.97272e-25)
(0.415607 -0.00116119 -1.00163e-24)
(0.41516 -0.00122122 0)
(0.414264 -0.00127678 -1.03292e-24)
(0.412851 -0.00132435 -9.13584e-28)
(0.410833 -0.00135918 1.08556e-24)
(0.408108 -0.00137496 0)
(0.404549 -0.00136354 0)
(0.400437 -0.00131917 0)
(0.396288 -0.00125154 1.11918e-24)
(0.392188 -0.00116795 3.09504e-27)
(0.388181 -0.00107436 -1.08058e-24)
(0.38429 -0.000975517 1.07081e-24)
(0.380518 -0.000875049 4.0044e-27)
(0.376857 -0.00077568 -2.10748e-24)
(0.373292 -0.000679384 1.05077e-24)
(0.369805 -0.000587544 0)
(0.366373 -0.000501085 0)
(0.362971 -0.000420582 0)
(0.359572 -0.000346346 -1.11156e-24)
(0.356147 -0.000278495 -4.56718e-27)
(0.352664 -0.00021701 1.18253e-24)
(0.349085 -0.000161777 0)
(0.345368 -0.00011262 0)
(0.341463 -6.93313e-05 -1.39522e-24)
(0.337309 -3.16907e-05 1.49865e-24)
(0.332828 5.17664e-07 8.19191e-25)
(0.327919 2.74893e-05 -1.80931e-24)
(0.322449 4.93857e-05 1.01542e-24)
(0.316232 6.63226e-05 0)
(0.309002 7.83622e-05 1.36243e-24)
(0.300363 8.54989e-05 -1.63566e-24)
(0.289704 8.7654e-05 1.0156e-24)
(0.276028 8.46761e-05 -1.30925e-24)
(0.257633 7.63469e-05 0)
(0.231521 6.21544e-05 0)
(0.194114 4.32542e-05 0)
(0.145377 2.32286e-05 -1.03822e-24)
(0.0895824 8.39574e-06 1.75144e-24)
(0.0309107 8.32761e-07 -4.26098e-25)
(0.0335572 -9.12771e-07 0)
(0.0974804 -1.07841e-05 1.35161e-24)
(0.158956 -3.14335e-05 -1.2216e-24)
(0.214262 -6.30141e-05 0)
(0.25893 -0.000101019 0)
(0.292035 -0.000141527 0)
(0.316477 -0.000182458 0)
(0.335109 -0.000223805 -2.9901e-24)
(0.349694 -0.000265162 2.44681e-24)
(0.361345 -0.000306318 0)
(0.370805 -0.00034727 -1.7359e-24)
(0.378588 -0.000388162 1.49531e-24)
(0.385065 -0.000429222 2.61563e-24)
(0.390509 -0.000470738 1.98745e-27)
(0.395123 -0.00051303 2.02752e-27)
(0.399059 -0.000556435 -1.88341e-24)
(0.402433 -0.000601299 1.73142e-24)
(0.405332 -0.000647951 -1.6055e-24)
(0.407819 -0.000696701 1.50899e-24)
(0.409944 -0.000747815 -1.42851e-24)
(0.411739 -0.000801506 0)
(0.413225 -0.000857902 0)
(0.414413 -0.000917012 0)
(0.415303 -0.000978678 1.27248e-24)
(0.415886 -0.00104251 -1.25989e-24)
(0.416141 -0.00110777 0)
(0.416038 -0.0011733 0)
(0.415532 -0.0012373 0)
(0.414569 -0.00129716 1.31574e-24)
(0.413074 -0.0013492 -1.34552e-24)
(0.410962 -0.00138833 0)
(0.408125 -0.00140773 0)
(0.404438 -0.00139855 -3.61974e-25)
(0.400195 -0.0013543 1.09878e-24)
(0.395928 -0.00128521 -2.15952e-24)
(0.391723 -0.00119925 1.4129e-24)
(0.387625 -0.00110288 1.39847e-24)
(0.383656 -0.00100115 -1.37608e-24)
(0.379817 -0.000897896 0)
(0.376101 -0.00079594 1.3622e-24)
(0.372492 -0.00069731 -2.71555e-24)
(0.368969 -0.000603403 2.72549e-24)
(0.365511 -0.000515131 -1.37227e-24)
(0.36209 -0.000433044 0)
(0.358681 -0.000357423 0)
(0.355253 -0.000288355 0)
(0.351774 -0.000225791 1.52122e-24)
(0.348208 -0.000169588 -1.58401e-24)
(0.344513 -0.000119548 0)
(0.340639 -7.54401e-05 -1.78132e-24)
(0.336526 -3.70252e-05 1.91204e-24)
(0.332098 -4.06982e-06 0)
(0.327257 2.36376e-05 -1.15249e-24)
(0.321872 4.62753e-05 -1.86819e-27)
(0.31576 6.39721e-05 1.47772e-24)
(0.308661 7.67888e-05 1.73053e-24)
(0.300188 8.47003e-05 -2.07745e-24)
(0.289739 8.75862e-05 0)
(0.276329 8.52421e-05 1.66472e-24)
(0.258265 7.7386e-05 -2.25066e-24)
(0.232539 6.34218e-05 -3.15341e-24)
(0.195424 4.44225e-05 6.46713e-24)
(0.146649 2.39179e-05 -2.68409e-24)
(0.0904947 8.61483e-06 7.57524e-25)
(0.0312567 7.87272e-07 -5.54514e-25)
(0.0340811 -8.96945e-07 -6.1183e-25)
(0.0989117 -1.10894e-05 4.19365e-24)
(0.161104 -3.24219e-05 -3.02041e-24)
(0.216841 -6.50385e-05 0)
(0.261535 -0.000104102 0)
(0.294458 -0.000145566 0)
(0.31869 -0.000187418 4.53513e-24)
(0.337111 -0.000229642 -3.61176e-24)
(0.351496 -0.000271858 0)
(0.362965 -0.000313895 0)
(0.372265 -0.000355791 0)
(0.379911 -0.000397722 0)
(0.386274 -0.000439954 0)
(0.391622 -0.000482809 0)
(0.396156 -0.000526636 2.50162e-24)
(0.400025 -0.000571797 2.11955e-27)
(0.403342 -0.000618653 -4.17713e-24)
(0.406191 -0.000667549 1.94044e-24)
(0.408636 -0.0007188 0)
(0.410721 -0.000772682 0)
(0.412479 -0.000829409 0)
(0.413929 -0.000889105 0)
(0.41508 -0.000951769 0)
(0.415931 -0.00101722 0)
(0.416471 -0.00108504 0)
(0.416678 -0.00115446 0)
(0.416519 -0.00122423 0)
(0.41595 -0.00129249 0)
(0.414911 -0.00135651 0)
(0.413329 -0.00141244 0)
(0.411113 -0.00145503 -8.45769e-25)
(0.408156 -0.00147721 4.35144e-25)
(0.40433 -0.00146988 4.38617e-25)
(0.399946 -0.00142606 8.90473e-25)
(0.39555 -0.0013561 -8.71328e-25)
(0.39123 -0.00126823 0)
(0.387033 -0.00116915 -1.69068e-24)
(0.382977 -0.00106412 1.6623e-24)
(0.379065 -0.000957167 -1.65013e-24)
(0.375287 -0.000851266 1.63281e-24)
(0.371627 -0.000748568 0)
(0.368064 -0.000650564 0)
(0.364573 -0.000558242 0)
(0.361129 -0.000472206 -1.66998e-24)
(0.357705 -0.000392778 3.39974e-24)
(0.354269 -0.000320072 -1.74249e-24)
(0.350791 -0.000254055 0)
(0.347233 -0.000194595 0)
(0.343554 -0.000141497 0)
(0.339706 -9.45308e-05 -2.106e-24)
(0.33563 -5.34521e-05 2.25732e-24)
(0.33125 -1.80225e-05 0)
(0.326473 1.19747e-05 0)
(0.321169 3.6721e-05 0)
(0.315161 5.63473e-05 0)
(0.308197 7.09175e-05 0)
(0.299899 8.04121e-05 2.43354e-24)
(0.289678 8.47168e-05 -3.01786e-24)
(0.276566 8.36215e-05 1.95051e-24)
(0.258889 7.68128e-05 5.39563e-28)
(0.233647 6.3658e-05 -3.72528e-24)
(0.196936 4.5086e-05 0)
(0.148142 2.44948e-05 1.61731e-24)
(0.0915805 8.91339e-06 -9.18823e-25)
(0.0316711 8.57801e-07 -6.75441e-25)
(0.0345423 -9.52632e-07 0)
(0.100192 -1.14901e-05 -3.99034e-24)
(0.163052 -3.34743e-05 3.58271e-24)
(0.219203 -6.69754e-05 -5.94964e-24)
(0.263972 -0.000106824 4.57568e-24)
(0.296773 -0.000148875 3.44463e-24)
(0.320826 -0.000191127 -2.65374e-24)
(0.339056 -0.000233618 0)
(0.353256 -0.000276051 0)
(0.364557 -0.00031833 0)
(0.373709 -0.000360558 -2.42848e-24)
(0.381227 -0.000402957 2.09032e-24)
(0.387481 -0.000445822 0)
(0.392737 -0.000489497 0)
(0.397193 -0.000534352 0)
(0.400997 -0.000580767 0)
(0.404259 -0.000629118 0)
(0.407061 -0.000679764 0)
(0.409463 -0.000733039 0)
(0.41151 -0.00078923 0)
(0.413231 -0.000848567 0)
(0.414645 -0.000911189 0)
(0.41576 -0.000977104 0)
(0.416572 -0.00104614 0)
(0.417069 -0.00111787 0)
(0.417229 -0.0011915 0)
(0.417015 -0.00126575 0)
(0.416382 -0.00133868 0)
(0.415267 -0.00140743 0)
(0.413596 -0.00146799 0)
(0.411276 -0.00151479 0)
(0.408196 -0.00154041 0)
(0.40423 -0.0015352 0)
(0.3997 -0.00149155 0)
(0.395174 -0.00142015 0)
(0.390738 -0.00132973 -2.01885e-24)
(0.38644 -0.00122738 1.97983e-24)
(0.382297 -0.00111868 -1.95775e-24)
(0.378311 -0.00100786 1.9293e-24)
(0.374471 -0.000898058 1.91999e-24)
(0.37076 -0.000791526 -3.81911e-24)
(0.367155 -0.000689827 -5.94446e-27)
(0.363633 -0.00059399 -5.84504e-27)
(0.360166 -0.000504642 3.8921e-24)
(0.356726 -0.00042211 -1.97912e-24)
(0.353284 -0.000346508 -2.03508e-24)
(0.349807 -0.000277797 2.09704e-24)
(0.346258 -0.000215834 0)
(0.342596 -0.000160411 0)
(0.338775 -0.000111285 0)
(0.334736 -6.81966e-05 0)
(0.330406 -3.08946e-05 0)
(0.325692 8.52418e-07 0)
(0.320468 2.72403e-05 0)
(0.314563 4.84159e-05 0)
(0.307727 6.44631e-05 0)
(0.299591 7.53815e-05 2.80781e-24)
(0.289575 8.10656e-05 -3.48351e-24)
(0.276726 8.12851e-05 0)
(0.259384 7.567e-05 3.06113e-24)
(0.234546 6.34873e-05 -8.65856e-24)
(0.19817 4.54978e-05 6.01667e-24)
(0.149382 2.49373e-05 0)
(0.0924858 9.13343e-06 0)
(0.0320161 8.81383e-07 0)
(0.0350782 -9.82296e-07 0)
(0.101657 -1.19305e-05 0)
(0.165245 -3.47275e-05 0)
(0.221819 -6.94059e-05 0)
(0.266587 -0.000110361 5.23501e-24)
(0.299184 -0.000153349 9.13814e-28)
(0.323011 -0.00019642 -3.0146e-24)
(0.341024 -0.000239632 4.78438e-24)
(0.355026 -0.000282733 1.30745e-27)
(0.366154 -0.00032568 -3.23822e-24)
(0.375156 -0.000368627 0)
(0.382548 -0.000411845 0)
(0.388696 -0.000455676 0)
(0.393865 -0.000500499 3.66608e-24)
(0.398249 -0.000546714 -3.29267e-24)
(0.401992 -0.000594723 0)
(0.405202 -0.000644924 2.7626e-24)
(0.407958 -0.000697694 -2.57085e-24)
(0.410321 -0.000753381 0)
(0.412331 -0.00081229 2.30547e-24)
(0.414017 -0.000874661 -4.42661e-24)
(0.415396 -0.000940643 2.14456e-24)
(0.416475 -0.00101025 0)
(0.417248 -0.0010833 0)
(0.417702 -0.00115936 0)
(0.417813 -0.00123759 -2.06608e-24)
(0.417542 -0.00131667 2.08092e-24)
(0.416842 -0.00139456 2.11628e-24)
(0.41565 -0.00146828 -2.15658e-24)
(0.413886 -0.0015336 0)
(0.411456 -0.00158471 -1.14177e-24)
(0.408249 -0.00161381 1.1781e-24)
(0.404134 -0.00161079 0)
(0.399454 -0.0015674 0)
(0.39479 -0.0014946 0)
(0.390233 -0.00140157 -2.31254e-24)
(0.385827 -0.00129578 4.53941e-24)
(0.381593 -0.00118308 -4.4705e-24)
(0.377529 -0.00106795 4.41474e-24)
(0.373623 -0.000953683 -4.37467e-24)
(0.369857 -0.000842673 4.35272e-24)
(0.366209 -0.000736569 -2.17252e-24)
(0.362652 -0.000636462 0)
(0.359159 -0.000543021 0)
(0.355702 -0.000456599 0)
(0.352249 -0.000377322 -2.3047e-24)
(0.34877 -0.000305155 -5.55794e-27)
(0.345226 -0.000239953 4.94053e-24)
(0.341579 -0.0001815 5.22646e-27)
(0.337781 -0.000129543 -2.7447e-24)
(0.333774 -8.3811e-05 0)
(0.329489 -4.40421e-05 3.19533e-24)
(0.324833 -9.99436e-06 -7.02605e-24)
(0.319685 1.85365e-05 3.92659e-24)
(0.313877 4.17014e-05 0)
(0.307167 5.95807e-05 0)
(0.299195 7.21619e-05 -3.13349e-24)
(0.289394 7.93174e-05 3.88549e-24)
(0.276833 8.07847e-05 -2.51426e-24)
(0.259876 7.61419e-05 3.42024e-24)
(0.235538 6.45939e-05 0)
(0.199616 4.68071e-05 0)
(0.150866 2.58643e-05 0)
(0.0935913 9.54925e-06 0)
(0.0324443 9.39877e-07 0)
(0.0355719 -1.01899e-06 -1.94692e-24)
(0.10302 -1.22859e-05 2.64677e-24)
(0.1673 -3.56933e-05 0)
(0.224288 -7.12074e-05 0)
(0.269103 -0.000112926 0)
(0.301549 -0.000156528 0)
(0.32518 -0.000200128 0)
(0.342991 -0.000243819 0)
(0.356805 -0.000287404 4.3463e-24)
(0.367764 -0.0003309 -3.60873e-24)
(0.376621 -0.000374512 0)
(0.383891 -0.000418552 -5.26208e-24)
(0.389936 -0.000463393 4.5991e-24)
(0.395019 -0.000509439 0)
(0.399332 -0.00055711 3.67199e-24)
(0.403015 -0.000606827 -3.34209e-24)
(0.406174 -0.000659002 0)
(0.408887 -0.00071403 0)
(0.411209 -0.000772275 0)
(0.413183 -0.000834057 0)
(0.414834 -0.000899633 0)
(0.416179 -0.000969161 0)
(0.41722 -0.00104266 0)
(0.417954 -0.00111996 0)
(0.418365 -0.00120061 0)
(0.418425 -0.00128374 0)
(0.418096 -0.00136797 0)
(0.417328 -0.00145118 2.3835e-24)
(0.416055 -0.00153024 -2.42998e-24)
(0.414195 -0.00160073 0)
(0.411652 -0.00165652 -1.28699e-24)
(0.408313 -0.00168941 1.32808e-24)
(0.404045 -0.00168876 0)
(0.399208 -0.00164562 0)
(0.394402 -0.00157128 0)
(0.389719 -0.00147544 0)
(0.385203 -0.001366 0)
(0.380874 -0.00124913 0)
(0.376729 -0.00112954 0)
(0.372755 -0.00101073 0)
(0.368933 -0.000895206 0)
(0.365239 -0.000784706 0)
(0.361646 -0.000680379 -2.4496e-24)
(0.358126 -0.000582928 -6.20369e-27)
(0.35465 -0.000492726 2.50664e-24)
(0.351187 -0.000409906 0)
(0.347705 -0.000334432 0)
(0.344167 -0.000266154 0)
(0.340533 -0.000204846 0)
(0.336758 -0.00015024 0)
(0.332784 -0.000102055 0)
(0.328544 -6.00107e-05 0)
(0.323946 -2.3851e-05 0)
(0.318874 6.64496e-06 0)
(0.313162 3.16437e-05 0)
(0.306576 5.124e-05 0)
(0.298762 6.54345e-05 0)
(0.289168 7.41094e-05 0)
(0.276875 7.70045e-05 0)
(0.260268 7.36853e-05 0)
(0.236367 6.33365e-05 0)
(0.20084 4.646e-05 0)
(0.152143 2.59234e-05 4.91702e-24)
(0.0945458 9.64717e-06 -5.67693e-24)
(0.0328132 9.63648e-07 0)
(0.0361228 -1.06376e-06 0)
(0.104523 -1.27933e-05 0)
(0.169541 -3.70864e-05 0)
(0.226942 -7.38421e-05 8.6303e-24)
(0.271737 -0.000116655 1.0321e-27)
(0.303964 -0.00016113 -4.85158e-24)
(0.327361 -0.000205443 0)
(0.344954 -0.00024974 0)
(0.358574 -0.000293906 0)
(0.369366 -0.000338028 0)
(0.378082 -0.000382367 0)
(0.385234 -0.000427281 0)
(0.391183 -0.00047318 0)
(0.396186 -0.000520497 0)
(0.400432 -0.000569675 0)
(0.404059 -0.000621157 0)
(0.407171 -0.000675376 0)
(0.409842 -0.000732745 0)
(0.412128 -0.000793648 0)
(0.414066 -0.000858424 0)
(0.415684 -0.000927344 0)
(0.416994 -0.00100058 0)
(0.418 -0.00107817 0)
(0.418694 -0.00115993 0)
(0.41906 -0.00124539 -5.13966e-24)
(0.419069 -0.00133367 2.57045e-24)
(0.418681 -0.00142332 -4.16556e-27)
(0.417842 -0.00151212 2.64275e-24)
(0.416485 -0.00159679 -2.70452e-24)
(0.414527 -0.00167269 2.77121e-24)
(0.411867 -0.00173339 0)
(0.408389 -0.00177025 0)
(0.403963 -0.00177208 0)
(0.398961 -0.00172919 0)
(0.394008 -0.00165322 2.94722e-24)
(0.389193 -0.0015544 -2.88263e-24)
(0.384563 -0.00144105 0)
(0.380134 -0.0013197 2.78895e-24)
(0.375905 -0.00119531 -2.74269e-24)
(0.37186 -0.00107157 5.43942e-24)
(0.367979 -0.000951134 -5.38821e-24)
(0.364236 -0.000835829 0)
(0.360605 -0.000726873 -5.40431e-24)
(0.357056 -0.000625008 8.16287e-24)
(0.353559 -0.00053063 -2.75946e-24)
(0.350083 -0.000443883 0)
(0.346596 -0.000364732 0)
(0.343061 -0.000293021 0)
(0.339438 -0.000228516 0)
(0.335683 -0.000170936 0)
(0.331739 -0.000119986 0)
(0.327539 -7.53684e-05 0)
(0.322996 -3.68112e-05 0)
(0.317994 -4.07852e-06 2.36503e-24)
(0.312373 2.30099e-05 -2.68777e-24)
(0.305905 4.45591e-05 0)
(0.298247 6.05741e-05 3.74972e-24)
(0.288858 7.09299e-05 -4.64709e-24)
(0.276841 7.53377e-05 0)
(0.260609 7.32986e-05 0)
(0.237207 6.38988e-05 0)
(0.202162 4.75199e-05 0)
(0.153561 2.67873e-05 0)
(0.0956282 1.00646e-05 3.17285e-24)
(0.0332379 1.02513e-06 -2.3708e-24)
(0.0366493 -1.09708e-06 2.4464e-24)
(0.105967 -1.31484e-05 -3.30523e-24)
(0.171703 -3.80547e-05 0)
(0.229512 -7.56516e-05 9.50841e-24)
(0.274318 -0.000119221 -1.42994e-23)
(0.306363 -0.000164314 -1.02224e-27)
(0.329545 -0.000209199 4.04175e-24)
(0.34693 -0.000254053 0)
(0.360361 -0.000298809 5.16565e-24)
(0.37099 -0.00034361 -4.28171e-24)
(0.379568 -0.000388763 0)
(0.386605 -0.000434665 0)
(0.392458 -0.000481756 0)
(0.397382 -0.000530493 0)
(0.401563 -0.000581342 4.37262e-24)
(0.405136 -0.000634767 -3.98801e-24)
(0.408201 -0.000691218 3.68754e-24)
(0.410831 -0.000751128 3.43391e-27)
(0.41308 -0.000814901 3.56588e-27)
(0.414985 -0.000882894 -3.10278e-24)
(0.416569 -0.000955397 0)
(0.417844 -0.0010326 0)
(0.418814 -0.00111454 0)
(0.419468 -0.00120104 0)
(0.419789 -0.00129161 5.63248e-24)
(0.419746 -0.00138536 -1.13026e-23)
(0.419297 -0.00148076 2.84936e-24)
(0.418385 -0.0015755 5.80794e-24)
(0.416942 -0.00166614 -2.96574e-24)
(0.41488 -0.0017478 0)
(0.412099 -0.00181373 0)
(0.408479 -0.00185484 0)
(0.403886 -0.00185933 0)
(0.398715 -0.00181674 0)
(0.393607 -0.00173908 3.23653e-24)
(0.388656 -0.00163715 -3.16442e-24)
(0.383907 -0.00151972 0)
(0.379375 -0.0013937 3.05713e-24)
(0.375058 -0.00126432 -3.00442e-24)
(0.370939 -0.00113548 0)
(0.366996 -0.00100997 0)
(0.363203 -0.000889719 0)
(0.359532 -0.000776007 0)
(0.355951 -0.000669621 0)
(0.352432 -0.000570978 -3.01183e-24)
(0.348943 -0.000480232 3.06772e-24)
(0.345449 -0.000397348 0)
(0.341916 -0.000322162 0)
(0.338304 -0.00025443 0)
(0.334568 -0.000193859 -3.61766e-24)
(0.330653 -0.000140136 3.85636e-24)
(0.326493 -9.29512e-05 0)
(0.322004 -5.20145e-05 0)
(0.317071 -1.70748e-05 -2.54948e-24)
(0.311541 1.20639e-05 2.89452e-24)
(0.30519 3.55215e-05 -3.36928e-24)
(0.297683 5.33157e-05 4.02929e-24)
(0.288494 6.53313e-05 0)
(0.276743 7.12813e-05 3.23602e-24)
(0.260868 7.06566e-05 8.84639e-28)
(0.237935 6.25277e-05 -6.36733e-24)
(0.203348 4.71408e-05 -4.57681e-24)
(0.154859 2.68596e-05 6.00289e-24)
(0.0966277 1.01833e-05 0)
(0.033631 1.05529e-06 3.8318e-35)
(0.0372162 -1.14444e-06 0)
(0.107511 -1.36541e-05 0)
(0.173992 -3.9421e-05 -6.40897e-24)
(0.232204 -7.81992e-05 5.17614e-24)
(0.27697 -0.000122767 0)
(0.308786 -0.000168634 -5.71252e-24)
(0.33173 -0.000214156 -4.34804e-24)
(0.348897 -0.000259573 6.84164e-24)
(0.362139 -0.000304903 0)
(0.372608 -0.000350361 -4.59075e-24)
(0.381053 -0.000396309 3.88179e-24)
(0.387981 -0.000443187 -6.69087e-24)
(0.393745 -0.000491468 1.17181e-23)
(0.398596 -0.000541636 -1.0421e-23)
(0.402716 -0.000594182 4.69774e-24)
(0.406238 -0.000649589 0)
(0.40926 -0.00070833 3.97345e-24)
(0.411852 -0.000770859 3.65823e-27)
(0.414066 -0.000837598 -3.51182e-24)
(0.415937 -0.000908927 0)
(0.417489 -0.000985152 0)
(0.418731 -0.00106648 0)
(0.419664 -0.00115296 0)
(0.420278 -0.00124441 0)
(0.420553 -0.00134035 6.11731e-24)
(0.420457 -0.00143982 -6.13742e-24)
(0.419945 -0.00154126 0)
(0.418958 -0.00164223 0)
(0.417426 -0.00173914 0)
(0.415258 -0.00182687 -3.3207e-24)
(0.41235 -0.0018983 5.1288e-24)
(0.408581 -0.00194389 -8.81648e-25)
(0.403817 -0.00195118 -1.77729e-24)
(0.398468 -0.00190891 -9.01169e-25)
(0.393201 -0.00182947 1.75726e-24)
(0.388107 -0.00172424 0)
(0.383233 -0.0016025 0)
(0.378595 -0.00147152 -3.32116e-24)
(0.374186 -0.00133686 3.26177e-24)
(0.36999 -0.0012026 0)
(0.365983 -0.00107169 0)
(0.362137 -0.000946174 0)
(0.358423 -0.000827402 0)
(0.35481 -0.0007162 0)
(0.351267 -0.000613012 3.25163e-24)
(0.347761 -0.000518 -3.30877e-24)
(0.34426 -0.000431129 0)
(0.340727 -0.00035223 0)
(0.337123 -0.000281045 0)
(0.333403 -0.000217266 -3.88401e-24)
(0.329514 -0.000160565 -5.77903e-27)
(0.325392 -0.000110613 8.93398e-24)
(0.320952 -6.71034e-05 5.45417e-27)
(0.316085 -2.97682e-05 -2.71761e-24)
(0.31064 1.60451e-06 2.58642e-27)
(0.304401 2.71483e-05 2.52013e-27)
(0.297042 4.68911e-05 -4.28753e-24)
(0.288049 6.07192e-05 0)
(0.276565 6.83306e-05 0)
(0.261056 6.91704e-05 0)
(0.238621 6.22343e-05 6.80321e-24)
(0.204546 4.76473e-05 -9.86391e-24)
(0.156209 2.74703e-05 0)
(0.0976879 1.05276e-05 0)
(0.0340532 1.1141e-06 0)
(0.0377727 -1.17944e-06 0)
(0.109029 -1.40343e-05 0)
(0.176247 -4.04519e-05 0)
(0.234857 -8.01166e-05 1.11953e-23)
(0.279599 -0.000125449 -8.31895e-24)
(0.311205 -0.000171932 0)
(0.333921 -0.000218034 0)
(0.350876 -0.00026403 7.3009e-24)
(0.363934 -0.000309998 -5.90066e-24)
(0.374246 -0.000356205 4.8881e-24)
(0.382561 -0.00040306 -1.24003e-23)
(0.389383 -0.000451039 7.12095e-24)
(0.39506 -0.000500643 0)
(0.39984 -0.000552384 0)
(0.403901 -0.000606774 -5.01616e-24)
(0.407374 -0.00066432 9.1728e-24)
(0.410353 -0.000725515 -4.24462e-24)
(0.412908 -0.000790836 3.97895e-24)
(0.415088 -0.000860729 -3.76274e-24)
(0.416927 -0.000935593 -3.60235e-24)
(0.418446 -0.00101576 3.47395e-24)
(0.419655 -0.00110144 0)
(0.420552 -0.00119272 0)
(0.421126 -0.0012894 0)
(0.421354 -0.00139099 0)
(0.421203 -0.0014965 0)
(0.420626 -0.00160431 0)
(0.419563 -0.00171187 0)
(0.417938 -0.00181541 0)
(0.41566 -0.00190956 -3.58709e-24)
(0.412621 -0.00198684 3.69207e-24)
(0.408698 -0.00203718 0)
(0.403754 -0.00204748 9.61063e-25)
(0.398221 -0.00200558 9.73327e-25)
(0.392787 -0.00192429 -1.89771e-24)
(0.387545 -0.00181561 0)
(0.382542 -0.00168936 0)
(0.377792 -0.00155321 0)
(0.373288 -0.00141302 0)
(0.369012 -0.00127309 0)
(0.364938 -0.00113655 -6.88321e-24)
(0.361037 -0.00100554 1.36812e-23)
(0.357278 -0.000881491 -6.83295e-24)
(0.35363 -0.00076527 0)
(0.350061 -0.000657346 0)
(0.346538 -0.000557894 0)
(0.343028 -0.000466879 3.64071e-24)
(0.339494 -0.000384125 6.58692e-27)
(0.335897 -0.000309363 -7.85083e-24)
(0.332193 -0.000242273 8.27125e-24)
(0.328329 -0.000182509 -8.80904e-24)
(0.324242 -0.000129725 -5.8584e-27)
(0.319851 -8.3596e-05 5.1899e-24)
(0.315049 -4.38357e-05 0)
(0.309688 -1.02141e-05 0)
(0.303558 1.74195e-05 -3.7976e-24)
(0.296343 3.9108e-05 4.53197e-24)
(0.287542 5.47489e-05 -5.6121e-24)
(0.276318 6.40418e-05 1.08977e-23)
(0.261166 6.64168e-05 -4.97629e-24)
(0.239217 6.0843e-05 0)
(0.205654 4.73308e-05 5.27793e-24)
(0.157492 2.76271e-05 -7.05582e-24)
(0.0987101 1.07014e-05 -4.1798e-24)
(0.0344629 1.15526e-06 3.16749e-24)
(0.0383573 -1.22732e-06 0)
(0.110616 -1.45326e-05 0)
(0.178587 -4.17831e-05 0)
(0.237588 -8.25722e-05 0)
(0.28227 -0.00012882 0)
(0.313635 -0.000176001 0)
(0.33611 -0.000222697 0)
(0.35285 -0.00026925 0)
(0.365724 -0.000315821 0)
(0.375885 -0.000362748 0)
(0.384076 -0.00041049 0)
(0.390797 -0.000459563 0)
(0.396392 -0.0005105 6.60666e-24)
(0.401106 -0.000563838 -1.17676e-23)
(0.405112 -0.000620113 -3.72828e-27)
(0.408539 -0.000679856 -3.87352e-27)
(0.411479 -0.000743582 4.51082e-24)
(0.413999 -0.000811791 4.23321e-24)
(0.416147 -0.000884953 -4.00752e-24)
(0.417955 -0.000963492 0)
(0.419442 -0.00104776 0)
(0.420618 -0.00113799 0)
(0.421479 -0.00123426 0)
(0.422012 -0.00133641 0)
(0.422193 -0.00144392 0)
(0.421986 -0.00155577 -7.10125e-24)
(0.421343 -0.00167027 7.17996e-24)
(0.4202 -0.00178475 0)
(0.41848 -0.00189528 0)
(0.416088 -0.0019962 0)
(0.412912 -0.00207964 0)
(0.408829 -0.00213501 0)
(0.403698 -0.0021485 0)
(0.397974 -0.00210702 0)
(0.392366 -0.00202378 -4.08086e-24)
(0.38697 -0.0019115 3.98565e-24)
(0.381833 -0.0017805 0)
(0.376967 -0.0016389 0)
(0.372364 -0.00149288 -7.53998e-24)
(0.368004 -0.001347 7.41796e-24)
(0.36386 -0.00120454 0)
(0.359901 -0.00106776 0)
(0.356096 -0.000938166 0)
(0.352411 -0.000816675 0)
(0.348815 -0.000703781 0)
(0.345272 -0.000599668 0)
(0.341751 -0.000504301 0)
(0.338214 -0.000417497 0)
(0.334622 -0.000338973 0)
(0.330931 -0.000268393 0)
(0.32709 -0.000205394 0)
(0.323037 -0.000149611 0)
(0.318691 -0.000100701 5.48272e-24)
(0.31395 -5.83568e-05 -6.08025e-24)
(0.308669 -2.23318e-05 0)
(0.302645 7.54178e-06 0)
(0.295569 3.13208e-05 0)
(0.286956 4.89106e-05 0)
(0.275989 6.00052e-05 0)
(0.261196 6.40038e-05 -5.22115e-24)
(0.239747 5.98204e-05 1.52021e-23)
(0.206727 4.73617e-05 -1.12071e-23)
(0.158779 2.80229e-05 0)
(0.0997556 1.09882e-05 0)
(0.0348868 1.21388e-06 0)
(0.0389413 -1.26538e-06 0)
(0.112201 -1.49382e-05 -9.26038e-24)
(0.180924 -4.28684e-05 8.06428e-24)
(0.240309 -8.45694e-05 0)
(0.284934 -0.00013156 0)
(0.316066 -0.000179325 -6.86605e-24)
(0.338304 -0.000226578 5.18819e-24)
(0.354833 -0.000273707 8.12919e-24)
(0.367528 -0.000320938 -6.55822e-24)
(0.377541 -0.000368666 -5.429e-24)
(0.385612 -0.000417395 4.59067e-24)
(0.392236 -0.000467673 0)
(0.397752 -0.000520061 0)
(0.402402 -0.000575123 0)
(0.406356 -0.000633418 0)
(0.409739 -0.000695499 0)
(0.412641 -0.000761907 0)
(0.415127 -0.000833167 0)
(0.417244 -0.000909774 0)
(0.419021 -0.000992177 0)
(0.420478 -0.00108075 0)
(0.421621 -0.00117576 0)
(0.422445 -0.0012773 0)
(0.422937 -0.00138519 0)
(0.42307 -0.00149892 0)
(0.422807 -0.00161745 0)
(0.422095 -0.00173899 0)
(0.420871 -0.00186078 0)
(0.419053 -0.00197868 0)
(0.416542 -0.00208675 0)
(0.413225 -0.00217673 0)
(0.408975 -0.00223744 0)
(0.40365 -0.00225434 0)
(0.397727 -0.00221335 0)
(0.391938 -0.00212812 0)
(0.386382 -0.00201205 0)
(0.381104 -0.00187608 0)
(0.376117 -0.00172878 0)
(0.371411 -0.00157667 0)
(0.366964 -0.00142455 0)
(0.362747 -0.00127589 0)
(0.358728 -0.00113308 0)
(0.354874 -0.000997686 0)