/*--------------------------------*- C++ -*----------------------------------*\
| =========                 |                                                 |
| \\      /  F ield         | OpenFOAM: The Open Source CFD Toolbox           |
|  \\    /   O peration     | Version:  2412                                  |
|   \\  /    A nd           | Website:  www.openfoam.com                      |
|    \\/     M anipulation  |                                                 |
\*---------------------------------------------------------------------------*/
FoamFile
{
    version     2.0;
    format      ascii;
    arch        "LSB;label=32;scalar=64";
    class       volScalarField;
    location    "2000";
    object      Ux;
}
// * * * * * * * * * * * * * * * * * * * * * * * * * * * * * * * * * * * * * //

dimensions      [0 1 -1 0 0 0 0];

internalField   nonuniform List<scalar> 
32240
(
0.031499
0.091806
0.150333
0.203746
0.248013
0.28161
0.306791
0.326248
0.341663
0.354106
0.364288
0.372713
0.379748
0.38567
0.390689
0.394968
0.398634
0.401783
0.40449
0.406811
0.408786
0.410444
0.411803
0.412868
0.413636
0.414095
0.41422
0.413975
0.413312
0.412169
0.410465
0.408102
0.404961
0.401277
0.397517
0.393764
0.390063
0.386437
0.382892
0.379423
0.376017
0.372659
0.369327
0.365997
0.362643
0.359236
0.355743
0.352126
0.34834
0.344333
0.340037
0.335369
0.33022
0.324444
0.317842
0.310128
0.300883
0.289463
0.27484
0.255281
0.227831
0.189476
0.141018
0.0865273
0.0297791
0.0322981
0.0939349
0.153496
0.207553
0.251951
0.285378
0.310307
0.329479
0.344603
0.356763
0.366682
0.374869
0.381695
0.387434
0.392297
0.396443
0.399995
0.403045
0.405666
0.407909
0.409812
0.411403
0.412695
0.413693
0.414392
0.414776
0.414819
0.414483
0.413717
0.412455
0.410615
0.408097
0.404777
0.40091
0.396983
0.393079
0.389244
0.3855
0.381852
0.378295
0.374814
0.371394
0.368011
0.364643
0.361263
0.357841
0.354346
0.35074
0.346979
0.343012
0.338774
0.334185
0.329139
0.323495
0.317058
0.309551
0.300564
0.289465
0.275235
0.25615
0.229233
0.191233
0.142639
0.0876348
0.0301739
0.0325804
0.0948031
0.154912
0.209362
0.253881
0.287243
0.312046
0.331067
0.346034
0.358042
0.367823
0.375888
0.382608
0.388258
0.393046
0.397129
0.400628
0.403635
0.406218
0.408429
0.410304
0.411867
0.413133
0.414104
0.414774
0.415126
0.415132
0.414753
0.413935
0.412612
0.410699
0.408094
0.404674
0.400703
0.396683
0.392696
0.38879
0.384986
0.381287
0.377688
0.374175
0.37073
0.36733
0.363951
0.360568
0.357149
0.353664
0.350075
0.346339
0.342406
0.338212
0.333678
0.328701
0.323143
0.316813
0.309439
0.300619
0.289729
0.275761
0.256995
0.230433
0.192678
0.144
0.0886065
0.0305482
0.0331355
0.0962949
0.157132
0.212025
0.256596
0.289802
0.314407
0.333221
0.347985
0.359803
0.369412
0.377326
0.383916
0.389456
0.394152
0.398157
0.401589
0.404538
0.40707
0.409234
0.411066
0.412587
0.413811
0.414738
0.41536
0.41566
0.415607
0.41516
0.414264
0.412851
0.410833
0.408108
0.404549
0.400437
0.396288
0.392188
0.388181
0.38429
0.380518
0.376857
0.373292
0.369805
0.366373
0.362971
0.359572
0.356147
0.352664
0.349085
0.345368
0.341463
0.337309
0.332828
0.327919
0.322449
0.316232
0.309002
0.300363
0.289704
0.276028
0.257633
0.231521
0.194114
0.145377
0.0895824
0.0309107
0.0335572
0.0974804
0.158956
0.214262
0.25893
0.292035
0.316477
0.335109
0.349694
0.361345
0.370805
0.378588
0.385065
0.390509
0.395123
0.399059
0.402433
0.405332
0.407819
0.409944
0.411739
0.413225
0.414413
0.415303
0.415886
0.416141
0.416038
0.415532
0.414569
0.413074
0.410962
0.408125
0.404438
0.400195
0.395928
0.391723
0.387625
0.383656
0.379817
0.376101
0.372492
0.368969
0.365511
0.36209
0.358681
0.355253
0.351774
0.348208
0.344513
0.340639
0.336526
0.332098
0.327257
0.321872
0.31576
0.308661
0.300188
0.289739
0.276329
0.258265
0.232539
0.195424
0.146649
0.0904947
0.0312567
0.0340811
0.0989117
0.161104
0.216841
0.261535
0.294458
0.31869
0.337111
0.351496
0.362965
0.372265
0.379911
0.386274
0.391622
0.396156
0.400025
0.403342
0.406191
0.408636
0.410721
0.412479
0.413929
0.41508
0.415931
0.416471
0.416678
0.416519
0.41595
0.414911
0.413329
0.411113
0.408156
0.40433
0.399946
0.39555
0.39123
0.387033
0.382977
0.379065
0.375287
0.371627
0.368064
0.364573
0.361129
0.357705
0.354269
0.350791
0.347233
0.343554
0.339706
0.33563
0.33125
0.326473
0.321169
0.315161
0.308197
0.299899
0.289678
0.276566
0.258889
0.233647
0.196936
0.148142
0.0915805
0.0316711
0.0345423
0.100192
0.163052
0.219203
0.263972
0.296773
0.320826
0.339056
0.353256
0.364557
0.373709
0.381227
0.387481
0.392737
0.397193
0.400997
0.404259
0.407061
0.409463
0.41151
0.413231
0.414645
0.41576
0.416572
0.417069
0.417229
0.417015
0.416382
0.415267
0.413596
0.411276
0.408196
0.40423
0.3997
0.395174
0.390738
0.38644
0.382297
0.378311
0.374471
0.37076
0.367155
0.363633
0.360166
0.356726
0.353284
0.349807
0.346258
0.342596
0.338775
0.334736
0.330406
0.325692
0.320468
0.314563
0.307727
0.299591
0.289575
0.276726
0.259384
0.234546
0.19817
0.149382
0.0924858
0.0320161
0.0350782
0.101657
0.165245
0.221819
0.266587
0.299184
0.323011
0.341024
0.355026
0.366154
0.375156
0.382548
0.388696
0.393865
0.398249
0.401992
0.405202
0.407958
0.410321
0.412331
0.414017
0.415396
0.416475
0.417248
0.417702
0.417813
0.417542
0.416842
0.41565
0.413886
0.411456
0.408249
0.404134
0.399454
0.39479
0.390233
0.385827
0.381593
0.377529
0.373623
0.369857
0.366209
0.362652
0.359159
0.355702
0.352249
0.34877
0.345226
0.341579
0.337781
0.333774
0.329489
0.324833
0.319685
0.313877
0.307167
0.299195
0.289394
0.276833
0.259876
0.235538
0.199616
0.150866
0.0935913
0.0324443
0.0355719
0.10302
0.1673
0.224288
0.269103
0.301549
0.32518
0.342991
0.356805
0.367764
0.376621
0.383891
0.389936
0.395019
0.399332
0.403015
0.406174
0.408887
0.411209
0.413183
0.414834
0.416179
0.41722
0.417954
0.418365
0.418425
0.418096
0.417328
0.416055
0.414195
0.411652
0.408313
0.404045
0.399208
0.394402
0.389719
0.385203
0.380874
0.376729
0.372755
0.368933
0.365239
0.361646
0.358126
0.35465
0.351187
0.347705
0.344167
0.340533
0.336758
0.332784
0.328544
0.323946
0.318874
0.313162
0.306576
0.298762
0.289168
0.276875
0.260268
0.236367
0.20084
0.152143
0.0945458
0.0328132
0.0361228
0.104523
0.169541
0.226942
0.271737
0.303964
0.327361
0.344954
0.358574
0.369366
0.378082
0.385234
0.391183
0.396186
0.400432
0.404059
0.407171
0.409842
0.412128
0.414066
0.415684
0.416994
0.418
0.418694
0.41906
0.419069
0.418681
0.417842
0.416485
0.414527
0.411867
0.408389
0.403963
0.398961
0.394008
0.389193
0.384563
0.380134
0.375905
0.37186
0.367979
0.364236
0.360605
0.357056
0.353559
0.350083
0.346596
0.343061
0.339438
0.335683
0.331739
0.327539
0.322996
0.317994
0.312373
0.305905
0.298247
0.288858
0.276841
0.260609
0.237207
0.202162
0.153561
0.0956282
0.0332379
0.0366493
0.105967
0.171703
0.229512
0.274318
0.306363
0.329545
0.34693
0.360361
0.37099
0.379568
0.386605
0.392458
0.397382
0.401563
0.405136
0.408201
0.410831
0.41308
0.414985
0.416569
0.417844
0.418814
0.419468
0.419789
0.419746
0.419297
0.418385
0.416942
0.41488
0.412099
0.408479
0.403886
0.398715
0.393607
0.388656
0.383907
0.379375
0.375058
0.370939
0.366996
0.363203
0.359532
0.355951
0.352432
0.348943
0.345449
0.341916
0.338304
0.334568
0.330653
0.326493
0.322004
0.317071
0.311541
0.30519
0.297683
0.288494
0.276743
0.260868
0.237935
0.203348
0.154859
0.0966277
0.033631
0.0372162
0.107511
0.173992
0.232204
0.27697
0.308786
0.33173
0.348897
0.362139
0.372608
0.381053
0.387981
0.393745
0.398596
0.402716
0.406238
0.40926
0.411852
0.414066
0.415937
0.417489
0.418731
0.419664
0.420278
0.420553
0.420457
0.419945
0.418958
0.417426
0.415258
0.41235
0.408581
0.403817
0.398468
0.393201
0.388107
0.383233
0.378595
0.374186
0.36999
0.365983
0.362137
0.358423
0.35481
0.351267
0.347761
0.34426
0.340727
0.337123
0.333403
0.329514
0.325392
0.320952
0.316085
0.31064
0.304401
0.297042
0.288049
0.276565
0.261056
0.238621
0.204546
0.156209
0.0976879
0.0340532
0.0377727
0.109029
0.176247
0.234857
0.279599
0.311205
0.333921
0.350876
0.363934
0.374246
0.382561
0.389383
0.39506
0.39984
0.403901
0.407374
0.410353
0.412908
0.415088
0.416927
0.418446
0.419655
0.420552
0.421126
0.421354
0.421203
0.420626
0.419563
0.417938
0.41566
0.412621
0.408698
0.403754
0.398221
0.392787
0.387545
0.382542
0.377792
0.373288
0.369012
0.364938
0.361037
0.357278
0.35363
0.350061
0.346538
0.343028
0.339494
0.335897
0.332193
0.328329
0.324242
0.319851
0.315049
0.309688
0.303558
0.296343
0.287542
0.276318
0.261166
0.239217
0.205654
0.157492
0.0987101
0.0344629
0.0383573
0.110616
0.178587
0.237588
0.28227
0.313635
0.33611
0.35285
0.365724
0.375885
0.384076
0.390797
0.396392
0.401106
0.405112
0.408539
0.411479
0.413999
0.416147
0.417955
0.419442
0.420618
0.421479
0.422012
0.422193
0.421986
0.421343
0.4202
0.41848
0.416088
0.412912
0.408829
0.403698
0.397974
0.392366
0.38697
0.381833
0.376967
0.372364
0.368004
0.36386
0.359901
0.356096
0.352411
0.348815
0.345272
0.341751
0.338214
0.334622
0.330931
0.32709
0.323037
0.318691
0.31395
0.308669
0.302645
0.295569
0.286956
0.275989
0.261196
0.239747
0.206727
0.158779
0.0997556
0.0348868
0.0389413
0.112201
0.180924
0.240309
0.284934
0.316066
0.338304
0.354833
0.367528
0.377541
0.385612
0.392236
0.397752
0.402402
0.406356
0.409739
0.412641
0.415127
0.417244
0.419021
0.420478
0.421621
0.422445
0.422937
0.42307
0.422807
0.422095
0.420871
0.419053
0.416542
0.413225
0.408975
0.40365
0.397727
0.391938
0.386382
0.381104
0.376117
0.371411
0.366964
0.362747
0.358728
0.354874
0.351151
0.347525
0.343962
0.340428
0.336886
0.333298
0.329619
0.3258
0.321778
0.317477
0.312795
0.307592
0.30167
0.29473
0.2863
0.275585
0.261145
0.240191
0.207726
0.160019
0.100782
0.0353071
0.0395448
0.113833
0.183316
0.243077
0.287619
0.318499
0.340495
0.356813
0.369333
0.379203
0.38716
0.393692
0.399135
0.403725
0.40763
0.410972
0.413839
0.416293
0.41838
0.420129
0.421555
0.422666
0.423454
0.423904
0.423989
0.423667
0.422886
0.421577
0.419657
0.417024
0.413561
0.409137
0.40361
0.397479
0.391502
0.385779
0.380356
0.375244
0.37043
0.365893
0.3616
0.357518
0.353613
0.349849
0.346191
0.342606
0.339057
0.335509
0.331923
0.328255
0.324454
0.320462
0.316203
0.311576
0.306448
0.300624
0.293816
0.285565
0.275096
0.261007
0.240553
0.208665
0.161234
0.101811
0.0357333
0.0401529
0.115475
0.185718
0.245847
0.290301
0.320931
0.342687
0.358798
0.371148
0.380881
0.388728
0.395172
0.400546
0.405079
0.408938
0.412242
0.415075
0.417499
0.419557
0.421278
0.422675
0.423753
0.424506
0.424914
0.424949
0.424568
0.423715
0.42232
0.420295
0.417535
0.413919
0.409315
0.403578
0.39723
0.391058
0.385161
0.379587
0.374344
0.369419
0.364787
0.360415
0.356268
0.352309
0.348503
0.344812
0.341202
0.337638
0.334082
0.330496
0.326836
0.323054
0.319089
0.314869
0.310296
0.30524
0.299512
0.292831
0.284753
0.274526
0.260781
0.240825
0.209525
0.162401
0.102823
0.0361579
0.0407742
0.117148
0.188153
0.248641
0.292989
0.323359
0.344872
0.360781
0.372966
0.382568
0.390311
0.396674
0.401982
0.406464
0.41028
0.413548
0.41635
0.418746
0.420777
0.42247
0.423839
0.424886
0.425602
0.425968
0.425953
0.425511
0.424586
0.423101
0.420967
0.418075
0.414302
0.40951
0.403555
0.396982
0.390605
0.384528
0.378796
0.373417
0.368377
0.363647
0.359193
0.354978
0.350963
0.347112
0.343386
0.33975
0.336169
0.332603
0.329015
0.325363
0.321596
0.317657
0.313473
0.308951
0.303963
0.298326
0.291769
0.283859
0.273867
0.26046
0.241001
0.210305
0.163522
0.103822
0.0365827
0.0414012
0.118833
0.190599
0.251437
0.295669
0.325778
0.347054
0.362765
0.374792
0.384269
0.391915
0.398201
0.403448
0.407882
0.411658
0.414893
0.417665
0.420035
0.422041
0.423708
0.425049
0.426064
0.426745
0.427068
0.427002
0.426499
0.425498
0.423921
0.421675
0.418648
0.414711
0.409724
0.403542
0.396734
0.390145
0.383879
0.377983
0.372463
0.367303
0.362471
0.357932
0.353646
0.349573
0.345674
0.341912
0.338249
0.334648
0.331072
0.327481
0.323833
0.32008
0.316164
0.312015
0.307541
0.302617
0.297068
0.290628
0.282881
0.273118
0.260043
0.241076
0.210995
0.164584
0.104797
0.037004
0.0420361
0.120535
0.19306
0.254237
0.298341
0.328186
0.349227
0.364747
0.376623
0.385983
0.393537
0.399752
0.404944
0.409333
0.413074
0.416277
0.419023
0.421368
0.42335
0.424992
0.426305
0.42729
0.427935
0.428216
0.428098
0.427532
0.426454
0.424783
0.422421
0.419253
0.415146
0.409957
0.403538
0.396486
0.389675
0.383214
0.377148
0.371481
0.366195
0.361257
0.356629
0.35227
0.348137
0.344189
0.340389
0.336696
0.333075
0.329486
0.325891
0.322247
0.318506
0.314611
0.310494
0.306065
0.301202
0.295735
0.289408
0.281816
0.272272
0.25952
0.241039
0.211581
0.165573
0.105741
0.0374193
0.0426753
0.122244
0.195524
0.257028
0.300997
0.330578
0.35139
0.366727
0.378461
0.387711
0.395181
0.401331
0.406473
0.410821
0.414528
0.417704
0.420425
0.422747
0.424705
0.426323
0.42761
0.428565
0.429174
0.429412
0.429242
0.428612
0.427455
0.425687
0.423206
0.419892
0.415609
0.41021
0.403544
0.396238
0.389197
0.382532
0.376288
0.370468
0.365052
0.360005
0.355285
0.350849
0.346653
0.342655
0.338814
0.335091
0.331447
0.327845
0.324245
0.320603
0.316872
0.312998
0.308911
0.304524
0.299719
0.29433
0.288108
0.280662
0.271326
0.258881
0.240873
0.212047
0.166499
0.106669
0.0378352
0.043324
0.123974
0.198
0.259813
0.303629
0.332947
0.353539
0.368705
0.380307
0.389456
0.396849
0.40294
0.408035
0.412346
0.416024
0.419174
0.421872
0.424172
0.426109
0.427704
0.428965
0.42989
0.430463
0.430658
0.430435
0.42974
0.428503
0.426635
0.424031
0.420567
0.416101
0.410483
0.403561
0.39599
0.388709
0.381831
0.375402
0.369424
0.363872
0.358711
0.353895
0.349379
0.345118
0.341067
0.337184
0.333429
0.329762
0.326145
0.322538
0.318897
0.315176
0.31132
0.307262
0.302915
0.298166
0.292851
0.28673
0.279421
0.270279
0.258118
0.240543
0.212377
0.167468
0.10766
0.0382845
0.0439997
0.125766
0.200541
0.262593
0.306225
0.335288
0.355675
0.370682
0.382163
0.391221
0.398543
0.404579
0.409632
0.413909
0.417559
0.420686
0.423363
0.425643
0.427559
0.429132
0.430369
0.431265
0.431803
0.431956
0.43168
0.430918
0.429599
0.427629
0.424898
0.421278
0.416622
0.410777
0.403589
0.395742
0.388211
0.381112
0.37449
0.368346
0.362654
0.357374
0.352458
0.34786
0.34353
0.339423
0.335496
0.331707
0.328016
0.324382
0.320767
0.317126
0.313414
0.309575
0.305544
0.301236
0.29654
0.291298
0.285275
0.278102
0.269152
0.257274
0.240132
0.212633
0.16839
0.108638
0.0387363
0.0447179
0.127664
0.203211
0.265376
0.308776
0.337608
0.357806
0.372666
0.384035
0.393006
0.400263
0.406249
0.411262
0.415509
0.419134
0.422239
0.424898
0.427159
0.429057
0.43061
0.431824
0.432691
0.433195
0.433305
0.432975
0.432147
0.430743
0.428668
0.425807
0.422026
0.417174
0.411093
0.403627
0.395493
0.387702
0.380373
0.373551
0.367235
0.361396
0.355992
0.350973
0.346288
0.341887
0.337723
0.33375
0.329925
0.326207
0.322557
0.318932
0.31529
0.311584
0.307761
0.303756
0.299486
0.294842
0.28967
0.283742
0.276701
0.267938
0.256335
0.239621
0.212787
0.169239
0.109586
0.0391836
0.0454418
0.129573
0.205894
0.268171
0.311339
0.339938
0.359949
0.374665
0.385925
0.394814
0.402009
0.407949
0.412927
0.417146
0.420749
0.423836
0.426477
0.428723
0.430604
0.432138
0.433329
0.43417
0.43464
0.434707
0.434324
0.433428
0.431939
0.429757
0.426762
0.422814
0.417759
0.411433
0.403678
0.395245
0.387183
0.379614
0.372583
0.366088
0.360097
0.354564
0.349437
0.344663
0.340188
0.335964
0.331943
0.32808
0.324335
0.320665
0.317029
0.313385
0.309686
0.305877
0.301897
0.297663
0.293068
0.287965
0.28213
0.275217
0.266637
0.255304
0.23901
0.212843
0.170019
0.110507
0.039629
0.0461742
0.1315
0.208589
0.270963
0.313895
0.342265
0.362095
0.376674
0.387831
0.396645
0.403783
0.409681
0.414627
0.418822
0.422406
0.425476
0.428104
0.430335
0.432202
0.433718
0.434888
0.435703
0.43614
0.436165
0.435728
0.434764
0.433188
0.430896
0.427762
0.423643
0.418377
0.411797
0.403742
0.394997
0.386652
0.378833
0.371586
0.364904
0.358754
0.353088
0.347849
0.342982
0.338431
0.334143
0.330072
0.32617
0.322396
0.318705
0.315058
0.31141
0.307715
0.303921
0.299963
0.295764
0.291218
0.28618
0.280436
0.273648
0.265246
0.254178
0.238299
0.212797
0.170723
0.111396
0.0400706
0.0469142
0.133443
0.211296
0.273755
0.316447
0.344592
0.364247
0.378694
0.389755
0.398498
0.405585
0.411444
0.416363
0.420537
0.424104
0.427161
0.429777
0.431997
0.43385
0.435351
0.436501
0.437291
0.437696
0.43768
0.437189
0.436156
0.434491
0.432087
0.428812
0.424515
0.419031
0.412187
0.403819
0.39475
0.386111
0.378032
0.370558
0.363682
0.357368
0.351562
0.346207
0.341243
0.336612
0.33226
0.328136
0.324193
0.320387
0.316675
0.313015
0.309362
0.305671
0.301889
0.297953
0.293787
0.289288
0.284315
0.278658
0.271992
0.263764
0.252955
0.237484
0.212644
0.171346
0.11225
0.0405076
0.0476607
0.135397
0.21401
0.276541
0.318993
0.346917
0.366402
0.380725
0.391695
0.400373
0.407413
0.413239
0.418134
0.42229
0.425844
0.428891
0.431497
0.433707
0.435549
0.437037
0.43817
0.438936
0.43931
0.439253
0.438709
0.437607
0.435852
0.433333
0.429912
0.425433
0.419723
0.412604
0.403912
0.394505
0.385559
0.377209
0.369499
0.362421
0.355935
0.349985
0.344509
0.339445
0.33473
0.33031
0.326132
0.322146
0.318308
0.314573
0.310898
0.307239
0.303551
0.29978
0.295865
0.291731
0.287277
0.282366
0.276795
0.270247
0.262189
0.251633
0.236562
0.212381
0.17188
0.113059
0.0409365
0.0484139
0.137364
0.216732
0.279322
0.321532
0.349238
0.36856
0.382765
0.393651
0.402269
0.409268
0.415065
0.419939
0.424082
0.427626
0.430665
0.433265
0.435468
0.437301
0.438777
0.439894
0.440639
0.440984
0.440887
0.44029
0.439118
0.437273
0.434636
0.431066
0.426398
0.420454
0.413051
0.40402
0.394261
0.384996
0.376363
0.368408
0.36112
0.354455
0.348355
0.342754
0.337584
0.332784
0.328293
0.324058
0.320027
0.316155
0.312395
0.308704
0.305039
0.301351
0.29759
0.293696
0.289592
0.285182
0.280331
0.274844
0.268412
0.260518
0.25021
0.235532
0.212005
0.172323
0.113825
0.0413579
0.0491726
0.139341
0.219456
0.282094
0.324061
0.351555
0.370721
0.384815
0.395622
0.404187
0.411148
0.416921
0.421779
0.425912
0.429449
0.432484
0.43508
0.437278
0.439106
0.440572
0.441676
0.442401
0.442718
0.442582
0.441934
0.440692
0.438755
0.435999
0.432275
0.427413
0.421227
0.413528
0.404146
0.39402
0.384422
0.375495
0.367284
0.359777
0.352927
0.34667
0.340937
0.335659
0.330769
0.326205
0.321911
0.317833
0.313925
0.310139
0.306431
0.302758
0.29907
0.295319
0.291442
0.287368
0.283
0.278209
0.272802
0.266483
0.258751
0.248685
0.234393
0.211515
0.172672
0.114543
0.0417711
0.0499358
0.141324
0.222179
0.284853
0.326577
0.353865
0.372882
0.386871
0.397607
0.406124
0.413054
0.418806
0.423653
0.427779
0.431314
0.434347
0.436942
0.43914
0.440964
0.442424
0.443516
0.444224
0.444515
0.444342
0.443642
0.44233
0.440301
0.437424
0.433543
0.42848
0.422044
0.414038
0.40429
0.393783
0.383837
0.374603
0.366126
0.358391
0.351347
0.344928
0.339059
0.333668
0.328684
0.324044
0.319688
0.315562
0.311616
0.307802
0.304076
0.300393
0.296705
0.292961
0.289103
0.285056
0.28073
0.275996
0.270668
0.264459
0.256885
0.247056
0.233143
0.210908
0.172921
0.115209
0.0421745
0.0507013
0.143309
0.224896
0.287595
0.329079
0.356167
0.375041
0.388933
0.399605
0.408079
0.414983
0.420721
0.42556
0.429683
0.433219
0.436255
0.438853
0.441052
0.442876
0.444333
0.445417
0.446109
0.446376
0.446168
0.445417
0.444036
0.441914
0.438913
0.434871
0.429602
0.422906
0.414582
0.404454
0.393549
0.383242
0.373687
0.364932
0.35696
0.349715
0.343126
0.337116
0.331607
0.326527
0.321807
0.317387
0.31321
0.309224
0.305381
0.301636
0.297942
0.294253
0.290516
0.286674
0.282655
0.278368
0.273689
0.268439
0.262337
0.254917
0.24532
0.231778
0.210181
0.173067
0.11582
0.0425672
0.0514694
0.145295
0.227605
0.29032
0.331563
0.358458
0.377197
0.390999
0.401613
0.410051
0.416935
0.422662
0.427499
0.431624
0.435165
0.438207
0.440811
0.443016
0.444843
0.446299
0.447377
0.448057
0.448302
0.448061
0.447262
0.445812
0.443596
0.440469
0.436263
0.430782
0.423818
0.415164
0.404639
0.393319
0.382636
0.372747
0.363703
0.355483
0.348028
0.341263
0.335106
0.329475
0.324294
0.319492
0.315005
0.310774
0.306747
0.302874
0.299108
0.295402
0.29171
0.287979
0.284152
0.280159
0.275911
0.271287
0.266111
0.260115
0.252845
0.243475
0.230298
0.20933
0.173103
0.116369
0.0429471
0.0522387
0.14728
0.230303
0.293023
0.334029
0.360736
0.379349
0.393068
0.40363
0.412038
0.418907
0.42463
0.429468
0.4336
0.43715
0.440203
0.442817
0.445031
0.446865
0.448324
0.4494
0.45007
0.450297
0.450024
0.449178
0.447661
0.44535
0.442097
0.437721
0.432022
0.424781
0.415784
0.404847
0.393096
0.382019
0.371783
0.362437
0.353959
0.346286
0.339337
0.333027
0.327269
0.321983
0.317095
0.312538
0.308252
0.304182
0.300277
0.296488
0.29277
0.289073
0.285347
0.281535
0.277567
0.273356
0.268785
0.263683
0.257789
0.250667
0.241518
0.228699
0.208353
0.173025
0.116852
0.043312
0.0530082
0.149261
0.232988
0.295703
0.336473
0.363
0.381493
0.395137
0.405654
0.414039
0.420898
0.426622
0.431467
0.435611
0.439174
0.442241
0.44487
0.447097
0.448942
0.450408
0.451485
0.452149
0.45236
0.452059
0.451168
0.449584
0.44718
0.443797
0.43925
0.433326
0.425799
0.416446
0.40508
0.392879
0.381391
0.370793
0.361132
0.352385
0.344485
0.337345
0.330876
0.324985
0.31959
0.314613
0.309984
0.30564
0.301525
0.297586
0.293774
0.290041
0.286339
0.282618
0.278819
0.274875
0.270701
0.266181
0.26115
0.255357
0.248379
0.239447
0.226978
0.207246
0.172826
0.117263
0.0436602
0.0537783
0.151239
0.235658
0.298358
0.338894
0.365248
0.383628
0.397204
0.407684
0.416051
0.422907
0.428636
0.433494
0.437653
0.441235
0.444322
0.44697
0.449215
0.451074
0.452551
0.453634
0.454296
0.454495
0.454168
0.453234
0.451586
0.449087
0.445575
0.440852
0.434697
0.426874
0.417151
0.40534
0.392669
0.380754
0.369777
0.359788
0.350761
0.342623
0.335285
0.32865
0.322622
0.317113
0.312043
0.307338
0.302935
0.298772
0.294798
0.290961
0.287213
0.283505
0.279787
0.276
0.27208
0.267941
0.263471
0.258511
0.252815
0.245979
0.237259
0.225134
0.206007
0.172504
0.117597
0.0439902
0.0545478
0.153211
0.238312
0.300986
0.341291
0.367477
0.385752
0.399267
0.409715
0.418072
0.42493
0.430671
0.435547
0.439728
0.443333
0.446445
0.449117
0.451384
0.453263
0.454755
0.455848
0.456512
0.456702
0.456354
0.45538
0.453668
0.451077
0.447433
0.442531
0.436139
0.428009
0.417903
0.405628
0.392468
0.380107
0.368734
0.358404
0.349084
0.340699
0.333154
0.326346
0.320175
0.314548
0.309381
0.304599
0.300132
0.295921
0.291909
0.288046
0.284281
0.280567
0.27685
0.273076
0.269177
0.265072
0.260652
0.25576
0.250161
0.243463
0.234951
0.223163
0.204634
0.172055
0.117852
0.0443014
0.0553155
0.155174
0.240944
0.303584
0.343659
0.369684
0.387861
0.401323
0.411747
0.420099
0.426966
0.432725
0.437624
0.441832
0.445466
0.448608
0.451309
0.453604
0.455508
0.457021
0.458128
0.458799
0.458985
0.458619
0.457608
0.455835
0.453151
0.449375
0.44429
0.437654
0.429208
0.418704
0.405946
0.392276
0.379449
0.367665
0.356977
0.347353
0.338711
0.33095
0.323962
0.317642
0.311892
0.306625
0.301761
0.297229
0.292966
0.288916
0.285025
0.281242
0.277519
0.273804
0.27004
0.266163
0.262092
0.257719
0.252895
0.247391
0.240828
0.232521
0.221063
0.203123
0.171474
0.118023
0.0445916
0.0560822
0.15713
0.243557
0.306151
0.345998
0.371867
0.389953
0.403368
0.413776
0.42213
0.429013
0.434795
0.439723
0.443964
0.447633
0.45081
0.453546
0.455875
0.457809
0.459348
0.460476
0.461158
0.461345
0.460965
0.459921
0.45809
0.455315
0.451405
0.446135
0.439248
0.430474
0.419558
0.406296
0.392094
0.378782
0.366568
0.355508
0.345565
0.336655
0.328669
0.321494
0.315019
0.309141
0.30377
0.298821
0.294221
0.289905
0.285814
0.281893
0.278092
0.27436
0.270645
0.266891
0.263034
0.258995
0.25467
0.249912
0.244501
0.238071
0.229964
0.218831
0.201471
0.170756
0.118102
0.044858
0.0568457
0.159073
0.246144
0.308682
0.348303
0.374023
0.392026
0.405402
0.415799
0.424162
0.431066
0.436879
0.441842
0.446123
0.449833
0.453051
0.455829
0.458196
0.460167
0.461738
0.462892
0.463592
0.463785
0.463396
0.462323
0.460436
0.457571
0.453528
0.448068
0.440923
0.431812
0.420466
0.40668
0.391924
0.378105
0.365442
0.353993
0.343719
0.334529
0.326309
0.318939
0.312302
0.306292
0.300812
0.295774
0.291104
0.286732
0.282599
0.278647
0.274826
0.271083
0.267367
0.263623
0.259786
0.255779
0.2515
0.246807
0.241486
0.235187
0.227277
0.216462
0.199673
0.169893
0.118082
0.0450968
0.057604
0.160999
0.2487
0.311172
0.35057
0.376147
0.394074
0.407419
0.417813
0.426192
0.433125
0.438974
0.44398
0.448306
0.452064
0.455331
0.458156
0.460569
0.462583
0.464193
0.465379
0.466102
0.466307
0.465914
0.464817
0.462878
0.459925
0.455747
0.450094
0.442685
0.433224
0.421433
0.407102
0.391767
0.377419
0.364287
0.352433
0.341813
0.332331
0.323867
0.316293
0.309489
0.303341
0.297747
0.292618
0.287874
0.283444
0.279266
0.275282
0.271439
0.267685
0.263968
0.260231
0.256413
0.252437
0.248203
0.243574
0.238343
0.232173
0.224455
0.213953
0.197727
0.168883
0.117959
0.0453074
0.0583584
0.162911
0.251226
0.313622
0.352798
0.378239
0.396097
0.409416
0.419815
0.428217
0.435185
0.441078
0.446134
0.450512
0.454325
0.457647
0.460526
0.462993
0.465057
0.466712
0.467937
0.468691
0.468915
0.468523
0.467406
0.465419
0.46238
0.458068
0.452219
0.444538
0.434715
0.422461
0.407561
0.391623
0.376723
0.363102
0.350824
0.339843
0.330057
0.321339
0.313554
0.306575
0.300283
0.294571
0.289346
0.284526
0.280036
0.275811
0.271793
0.267927
0.26416
0.260441
0.256712
0.252912
0.248966
0.244777
0.240211
0.235068
0.229024
0.221496
0.2113
0.195627
0.16772
0.117726
0.0454857
0.0591071
0.164804
0.25372
0.316029
0.354985
0.380294
0.39809
0.411392
0.421802
0.430234
0.437245
0.443189
0.448301
0.452739
0.456614
0.459998
0.46294
0.465468
0.467589
0.469298
0.470569
0.471361
0.47161
0.471226
0.470095
0.468064
0.464941
0.460494
0.454446
0.446486
0.436289
0.423554
0.408062
0.391494
0.376017
0.361886
0.349166
0.337809
0.327706
0.318722
0.310717
0.303556
0.297114
0.29128
0.285956
0.281055
0.276502
0.272229
0.268175
0.264285
0.260504
0.256781
0.253059
0.249277
0.24536
0.241215
0.236711
0.231655
0.225735
0.218394
0.2085
0.193372
0.166399
0.117378
0.0456299
0.0598495
0.166677
0.256178
0.31839
0.357127
0.382311
0.400051
0.413342
0.423771
0.432241
0.439302
0.445304
0.450479
0.454986
0.45893
0.462385
0.465397
0.467993
0.470181
0.471951
0.473277
0.474114
0.474395
0.474027
0.472888
0.470817
0.467614
0.463033
0.456782
0.448534
0.43795
0.424715
0.408605
0.39138
0.375301
0.360637
0.347456
0.335707
0.325273
0.316013
0.307779
0.300428
0.29383
0.287869
0.282441
0.277457
0.272838
0.268514
0.264423
0.260507
0.256712
0.252984
0.249268
0.245503
0.241615
0.237512
0.233069
0.228099
0.222303
0.215145
0.205547
0.190955
0.164914
0.116908
0.045737
0.0605867
0.168533
0.258603
0.320706
0.359224
0.384286
0.401977
0.415265
0.425719
0.434233
0.441351
0.447419
0.452667
0.457249
0.461271
0.464805
0.467896
0.47057
0.472832
0.474673
0.476062
0.476953
0.477275
0.47693
0.475789
0.473683
0.470403
0.465687
0.459231
0.450688
0.439702
0.425947
0.409194
0.391282
0.374574
0.359354
0.345693
0.333534
0.322755
0.313208
0.304735
0.297187
0.290427
0.284333
0.278798
0.273727
0.26904
0.264663
0.260532
0.256588
0.252777
0.249044
0.245333
0.241583
0.237723
0.233663
0.22928
0.224395
0.21872
0.211743
0.202437
0.188373
0.163261
0.11631
0.0458049
0.0613188
0.170371
0.260995
0.322976
0.361274
0.38622
0.403866
0.417157
0.427643
0.436209
0.443392
0.449534
0.454861
0.459527
0.463636
0.467258
0.470437
0.473198
0.475544
0.477464
0.478927
0.479881
0.480252
0.479938
0.478802
0.476668
0.473314
0.468465
0.461798
0.452952
0.441551
0.427255
0.40983
0.391201
0.373837
0.358036
0.343873
0.331287
0.32015
0.310303
0.301582
0.293829
0.286901
0.280669
0.275021
0.269861
0.265102
0.260669
0.256497
0.252524
0.248695
0.244955
0.241248
0.237513
0.23368
0.229661
0.225337
0.220536
0.214979
0.208181
0.199162
0.185618
0.16143
0.115574
0.0458267
0.0620444
0.172189
0.26335
0.325198
0.363276
0.388108
0.405716
0.419015
0.429541
0.438166
0.445421
0.451645
0.45706
0.461819
0.466023
0.469743
0.47302
0.475878
0.478318
0.480328
0.481874
0.482901
0.483331
0.483056
0.481934
0.479777
0.476352
0.47137
0.464491
0.455332
0.4435
0.42864
0.410514
0.391137
0.373088
0.356681
0.341994
0.328964
0.317453
0.307295
0.298315
0.290349
0.283246
0.276871
0.271108
0.265853
0.26102
0.256529
0.252313
0.24831
0.244461
0.240713
0.237008
0.233286
0.229479
0.225499
0.221233
0.216512
0.211073
0.204449
0.195711
0.182676
0.159406
0.114681
0.0457939
0.0627652
0.17399
0.265671
0.327372
0.365228
0.389951
0.407525
0.420839
0.43141
0.440101
0.447436
0.45375
0.459262
0.464123
0.468433
0.472259
0.475645
0.478609
0.481155
0.483265
0.484905
0.486015
0.486515
0.486289
0.485188
0.483015
0.479523
0.47441
0.467313
0.457832
0.445553
0.430106
0.411249
0.391091
0.372326
0.355287
0.340055
0.326561
0.314661
0.304179
0.294931
0.286744
0.279459
0.272937
0.267053
0.261702
0.256791
0.25224
0.247979
0.243943
0.240074
0.236315
0.232611
0.228901
0.225117
0.221174
0.216962
0.212319
0.206991
0.200534
0.192066
0.179524
0.157155
0.113604
0.0456925
0.0634809
0.175774
0.267958
0.329498
0.367131
0.391746
0.409292
0.422626
0.433249
0.442013
0.449436
0.455847
0.461465
0.466437
0.470862
0.474806
0.478311
0.481394
0.484056
0.486278
0.488023
0.489228
0.489808
0.489641
0.48857
0.486388
0.482835
0.477589
0.470272
0.46046
0.447716
0.431657
0.412036
0.391062
0.371551
0.353852
0.338051
0.324074
0.31177
0.300951
0.291424
0.283008
0.275535
0.268859
0.262851
0.2574
0.25241
0.247797
0.243489
0.23942
0.235529
0.23176
0.228055
0.224356
0.220594
0.216687
0.212526
0.207955
0.202731
0.196426
0.188203
0.1761
0.154596
0.1124
0.0455562
0.0641927
0.177543
0.270214
0.331578
0.368985
0.393494
0.411014
0.424375
0.435056
0.4439
0.451418
0.457935
0.463668
0.468761
0.473311
0.477384
0.481018
0.484232
0.487022
0.489369
0.491231
0.492544
0.493215
0.493118
0.492086
0.489902
0.486292
0.480916
0.473374
0.463218
0.449992
0.433295
0.412876
0.391049
0.370759
0.352373
0.335979
0.3215
0.308774
0.297605
0.287789
0.279134
0.271467
0.264631
0.258495
0.25294
0.247868
0.243192
0.238835
0.234731
0.230818
0.227038
0.223333
0.219645
0.215905
0.212032
0.207921
0.203421
0.198296
0.192138
0.184144
0.172447
0.151785
0.111083
0.0453923
0.0649015
0.179299
0.272439
0.333612