/*--------------------------------*- C++ -*----------------------------------*\
| =========                 |                                                 |
| \\      /  F ield         | OpenFOAM: The Open Source CFD Toolbox           |
|  \\    /   O peration     | Version:  2412                                  |
|   \\  /    A nd           | Website:  www.openfoam.com                      |
|    \\/     M anipulation  |                                                 |
\*---------------------------------------------------------------------------*/
FoamFile
{
    version     2.0;
    format      ascii;
    arch        "LSB;label=32;scalar=64";
    class       volScalarField;
    location    "2000";
    object      Uy;
}
// * * * * * * * * * * * * * * * * * * * * * * * * * * * * * * * * * * * * * //

dimensions      [0 1 -1 0 0 0 0];

internalField   nonuniform List<scalar> 
32240
(
-1.50553e-06
-1.11329e-05
-2.95283e-05
-5.61856e-05
-8.79684e-05
-0.000121878
-0.000156332
-0.000191487
-0.000226981
-0.000262538
-0.000298028
-0.000333436
-0.00036884
-0.000404392
-0.000440298
-0.000476797
-0.000514149
-0.000552613
-0.000592437
-0.000633843
-0.000677014
-0.000722074
-0.000769061
-0.000817889
-0.000868294
-0.000919761
-0.000971419
-0.0010219
-0.00106914
-0.00111016
-0.00114067
-0.00115467
-0.0011441
-0.00110387
-0.00104388
-0.00097142
-0.000891978
-0.00080955
-0.000727006
-0.000646354
-0.000568961
-0.000495714
-0.000427154
-0.000363578
-0.000305105
-0.000251737
-0.000203394
-0.000159944
-0.000121224
-8.70563e-05
-5.72588e-05
-3.16558e-05
-1.00849e-05
7.59886e-06
2.15158e-05
3.17586e-05
3.83881e-05
4.14423e-05
4.09547e-05
3.69633e-05
2.93519e-05
1.92777e-05
9.1537e-06
2.51164e-06
-1.80759e-07
-4.41219e-07
-9.86438e-06
-3.06082e-05
-6.33919e-05
-0.000104236
-0.000148967
-0.000195053
-0.000242285
-0.000289913
-0.000337402
-0.000384474
-0.000431047
-0.000477183
-0.000523057
-0.000568914
-0.000615045
-0.000661753
-0.000709332
-0.000758047
-0.000808113
-0.000859677
-0.000912793
-0.000967389
-0.00102323
-0.00107985
-0.00113649
-0.001192
-0.00124474
-0.00129238
-0.00133174
-0.00135861
-0.00136755
-0.00135163
-0.00130607
-0.00123934
-0.00115737
-0.00106532
-0.000967485
-0.000867293
-0.000767427
-0.000669923
-0.000576287
-0.00048759
-0.000404561
-0.00032766
-0.000257143
-0.000193112
-0.000135559
-8.44006e-05
-3.95036e-05
-7.12477e-07
3.21347e-05
5.91892e-05
8.05809e-05
9.64035e-05
0.000106703
0.000111463
0.00011061
0.000104042
9.16597e-05
7.31077e-05
5.00299e-05
2.67892e-05
9.81665e-06
1.12444e-06
-9.82865e-07
-1.01493e-05
-2.92735e-05
-5.85299e-05
-9.41036e-05
-0.000132372
-0.000171269
-0.000210769
-0.000250402
-0.000289852
-0.000329002
-0.000367891
-0.000406679
-0.000445608
-0.00048497
-0.000525081
-0.000566263
-0.000608835
-0.000653096
-0.000699313
-0.000747704
-0.000798412
-0.000851477
-0.000906783
-0.000963996
-0.00102248
-0.00108117
-0.00113842
-0.00119182
-0.00123788
-0.00127181
-0.00128704
-0.00127505
-0.00123005
-0.00116231
-0.00107951
-0.000987773
-0.00089179
-0.000795067
-0.00070016
-0.000608862
-0.000522381
-0.000441482
-0.000366602
-0.000297937
-0.000235515
-0.000179246
-0.000128964
-8.44588e-05
-4.54998e-05
-1.18539e-05
1.66976e-05
4.03455e-05
5.92416e-05
7.34896e-05
8.31385e-05
8.81769e-05
8.85354e-05
8.40984e-05
7.47116e-05
5.9924e-05
4.10334e-05
2.16197e-05
7.55739e-06
5.69924e-07
-7.88802e-07
-1.04085e-05
-3.06335e-05
-6.16904e-05
-9.93936e-05
-0.000139873
-0.000181074
-0.000222935
-0.000264976
-0.000306912
-0.000348672
-0.000390333
-0.000432077
-0.000474158
-0.000516874
-0.000560541
-0.000605481
-0.000651999
-0.000700376
-0.000750849
-0.000803595
-0.000858703
-0.000916141
-0.00097571
-0.00103698
-0.0010992
-0.00116119
-0.00122122
-0.00127678
-0.00132435
-0.00135918
-0.00137496
-0.00136354
-0.00131917
-0.00125154
-0.00116795
-0.00107436
-0.000975517
-0.000875049
-0.00077568
-0.000679384
-0.000587544
-0.000501085
-0.000420582
-0.000346346
-0.000278495
-0.00021701
-0.000161777
-0.00011262
-6.93313e-05
-3.16907e-05
5.17664e-07
2.74893e-05
4.93857e-05
6.63226e-05
7.83622e-05
8.54989e-05
8.7654e-05
8.46761e-05
7.63469e-05
6.21544e-05
4.32542e-05
2.32286e-05
8.39574e-06
8.32761e-07
-9.12771e-07
-1.07841e-05
-3.14335e-05
-6.30141e-05
-0.000101019
-0.000141527
-0.000182458
-0.000223805
-0.000265162
-0.000306318
-0.00034727
-0.000388162
-0.000429222
-0.000470738
-0.00051303
-0.000556435
-0.000601299
-0.000647951
-0.000696701
-0.000747815
-0.000801506
-0.000857902
-0.000917012
-0.000978678
-0.00104251
-0.00110777
-0.0011733
-0.0012373
-0.00129716
-0.0013492
-0.00138833
-0.00140773
-0.00139855
-0.0013543
-0.00128521
-0.00119925
-0.00110288
-0.00100115
-0.000897896
-0.00079594
-0.00069731
-0.000603403
-0.000515131
-0.000433044
-0.000357423
-0.000288355
-0.000225791
-0.000169588
-0.000119548
-7.54401e-05
-3.70252e-05
-4.06982e-06
2.36376e-05
4.62753e-05
6.39721e-05
7.67888e-05
8.47003e-05
8.75862e-05
8.52421e-05
7.7386e-05
6.34218e-05
4.44225e-05
2.39179e-05
8.61483e-06
7.87272e-07
-8.96945e-07
-1.10894e-05
-3.24219e-05
-6.50385e-05
-0.000104102
-0.000145566
-0.000187418
-0.000229642
-0.000271858
-0.000313895
-0.000355791
-0.000397722
-0.000439954
-0.000482809
-0.000526636
-0.000571797
-0.000618653
-0.000667549
-0.0007188
-0.000772682
-0.000829409
-0.000889105
-0.000951769
-0.00101722
-0.00108504
-0.00115446
-0.00122423
-0.00129249
-0.00135651
-0.00141244
-0.00145503
-0.00147721
-0.00146988
-0.00142606
-0.0013561
-0.00126823
-0.00116915
-0.00106412
-0.000957167
-0.000851266
-0.000748568
-0.000650564
-0.000558242
-0.000472206
-0.000392778
-0.000320072
-0.000254055
-0.000194595
-0.000141497
-9.45308e-05
-5.34521e-05
-1.80225e-05
1.19747e-05
3.6721e-05
5.63473e-05
7.09175e-05
8.04121e-05
8.47168e-05
8.36215e-05
7.68128e-05
6.3658e-05
4.5086e-05
2.44948e-05
8.91339e-06
8.57801e-07
-9.52632e-07
-1.14901e-05
-3.34743e-05
-6.69754e-05
-0.000106824
-0.000148875
-0.000191127
-0.000233618
-0.000276051
-0.00031833
-0.000360558
-0.000402957
-0.000445822
-0.000489497
-0.000534352
-0.000580767
-0.000629118
-0.000679764
-0.000733039
-0.00078923
-0.000848567
-0.000911189
-0.000977104
-0.00104614
-0.00111787
-0.0011915
-0.00126575
-0.00133868
-0.00140743
-0.00146799
-0.00151479
-0.00154041
-0.0015352
-0.00149155
-0.00142015
-0.00132973
-0.00122738
-0.00111868
-0.00100786
-0.000898058
-0.000791526
-0.000689827
-0.00059399
-0.000504642
-0.00042211
-0.000346508
-0.000277797
-0.000215834
-0.000160411
-0.000111285
-6.81966e-05
-3.08946e-05
8.52418e-07
2.72403e-05
4.84159e-05
6.44631e-05
7.53815e-05
8.10656e-05
8.12851e-05
7.567e-05
6.34873e-05
4.54978e-05
2.49373e-05
9.13343e-06
8.81383e-07
-9.82296e-07
-1.19305e-05
-3.47275e-05
-6.94059e-05
-0.000110361
-0.000153349
-0.00019642
-0.000239632
-0.000282733
-0.00032568
-0.000368627
-0.000411845
-0.000455676
-0.000500499
-0.000546714
-0.000594723
-0.000644924
-0.000697694
-0.000753381
-0.00081229
-0.000874661
-0.000940643
-0.00101025
-0.0010833
-0.00115936
-0.00123759
-0.00131667
-0.00139456
-0.00146828
-0.0015336
-0.00158471
-0.00161381
-0.00161079
-0.0015674
-0.0014946
-0.00140157
-0.00129578
-0.00118308
-0.00106795
-0.000953683
-0.000842673
-0.000736569
-0.000636462
-0.000543021
-0.000456599
-0.000377322
-0.000305155
-0.000239953
-0.0001815
-0.000129543
-8.3811e-05
-4.40421e-05
-9.99436e-06
1.85365e-05
4.17014e-05
5.95807e-05
7.21619e-05
7.93174e-05
8.07847e-05
7.61419e-05
6.45939e-05
4.68071e-05
2.58643e-05
9.54925e-06
9.39877e-07
-1.01899e-06
-1.22859e-05
-3.56933e-05
-7.12074e-05
-0.000112926
-0.000156528
-0.000200128
-0.000243819
-0.000287404
-0.0003309
-0.000374512
-0.000418552
-0.000463393
-0.000509439
-0.00055711
-0.000606827
-0.000659002
-0.00071403
-0.000772275
-0.000834057
-0.000899633
-0.000969161
-0.00104266
-0.00111996
-0.00120061
-0.00128374
-0.00136797
-0.00145118
-0.00153024
-0.00160073
-0.00165652
-0.00168941
-0.00168876
-0.00164562
-0.00157128
-0.00147544
-0.001366
-0.00124913
-0.00112954
-0.00101073
-0.000895206
-0.000784706
-0.000680379
-0.000582928
-0.000492726
-0.000409906
-0.000334432
-0.000266154
-0.000204846
-0.00015024
-0.000102055
-6.00107e-05
-2.3851e-05
6.64496e-06
3.16437e-05
5.124e-05
6.54345e-05
7.41094e-05
7.70045e-05
7.36853e-05
6.33365e-05
4.646e-05
2.59234e-05
9.64717e-06
9.63648e-07
-1.06376e-06
-1.27933e-05
-3.70864e-05
-7.38421e-05
-0.000116655
-0.00016113
-0.000205443
-0.00024974
-0.000293906
-0.000338028
-0.000382367
-0.000427281
-0.00047318
-0.000520497
-0.000569675
-0.000621157
-0.000675376
-0.000732745
-0.000793648
-0.000858424
-0.000927344
-0.00100058
-0.00107817
-0.00115993
-0.00124539
-0.00133367
-0.00142332
-0.00151212
-0.00159679
-0.00167269
-0.00173339
-0.00177025
-0.00177208
-0.00172919
-0.00165322
-0.0015544
-0.00144105
-0.0013197
-0.00119531
-0.00107157
-0.000951134
-0.000835829
-0.000726873
-0.000625008
-0.00053063
-0.000443883
-0.000364732
-0.000293021
-0.000228516
-0.000170936
-0.000119986
-7.53684e-05
-3.68112e-05
-4.07852e-06
2.30099e-05
4.45591e-05
6.05741e-05
7.09299e-05
7.53377e-05
7.32986e-05
6.38988e-05
4.75199e-05
2.67873e-05
1.00646e-05
1.02513e-06
-1.09708e-06
-1.31484e-05
-3.80547e-05
-7.56516e-05
-0.000119221
-0.000164314
-0.000209199
-0.000254053
-0.000298809
-0.00034361
-0.000388763
-0.000434665
-0.000481756
-0.000530493
-0.000581342
-0.000634767
-0.000691218
-0.000751128
-0.000814901
-0.000882894
-0.000955397
-0.0010326
-0.00111454
-0.00120104
-0.00129161
-0.00138536
-0.00148076
-0.0015755
-0.00166614
-0.0017478
-0.00181373
-0.00185484
-0.00185933
-0.00181674
-0.00173908
-0.00163715
-0.00151972
-0.0013937
-0.00126432
-0.00113548
-0.00100997
-0.000889719
-0.000776007
-0.000669621
-0.000570978
-0.000480232
-0.000397348
-0.000322162
-0.00025443
-0.000193859
-0.000140136
-9.29512e-05
-5.20145e-05
-1.70748e-05
1.20639e-05
3.55215e-05
5.33157e-05
6.53313e-05
7.12813e-05
7.06566e-05
6.25277e-05
4.71408e-05
2.68596e-05
1.01833e-05
1.05529e-06
-1.14444e-06
-1.36541e-05
-3.9421e-05
-7.81992e-05
-0.000122767
-0.000168634
-0.000214156
-0.000259573
-0.000304903
-0.000350361
-0.000396309
-0.000443187
-0.000491468
-0.000541636
-0.000594182
-0.000649589
-0.00070833
-0.000770859
-0.000837598
-0.000908927
-0.000985152
-0.00106648
-0.00115296
-0.00124441
-0.00134035
-0.00143982
-0.00154126
-0.00164223
-0.00173914
-0.00182687
-0.0018983
-0.00194389
-0.00195118
-0.00190891
-0.00182947
-0.00172424
-0.0016025
-0.00147152
-0.00133686
-0.0012026
-0.00107169
-0.000946174
-0.000827402
-0.0007162
-0.000613012
-0.000518
-0.000431129
-0.00035223
-0.000281045
-0.000217266
-0.000160565
-0.000110613
-6.71034e-05
-2.97682e-05
1.60451e-06
2.71483e-05
4.68911e-05
6.07192e-05
6.83306e-05
6.91704e-05
6.22343e-05
4.76473e-05
2.74703e-05
1.05276e-05
1.1141e-06
-1.17944e-06
-1.40343e-05
-4.04519e-05
-8.01166e-05
-0.000125449
-0.000171932
-0.000218034
-0.00026403
-0.000309998
-0.000356205
-0.00040306
-0.000451039
-0.000500643
-0.000552384
-0.000606774
-0.00066432
-0.000725515
-0.000790836
-0.000860729
-0.000935593
-0.00101576
-0.00110144
-0.00119272
-0.0012894
-0.00139099
-0.0014965
-0.00160431
-0.00171187
-0.00181541
-0.00190956
-0.00198684
-0.00203718
-0.00204748
-0.00200558
-0.00192429
-0.00181561
-0.00168936
-0.00155321
-0.00141302
-0.00127309
-0.00113655
-0.00100554
-0.000881491
-0.00076527
-0.000657346
-0.000557894
-0.000466879
-0.000384125
-0.000309363
-0.000242273
-0.000182509
-0.000129725
-8.3596e-05
-4.38357e-05
-1.02141e-05
1.74195e-05
3.9108e-05
5.47489e-05
6.40418e-05
6.64168e-05
6.0843e-05
4.73308e-05
2.76271e-05
1.07014e-05
1.15526e-06
-1.22732e-06
-1.45326e-05
-4.17831e-05
-8.25722e-05
-0.00012882
-0.000176001
-0.000222697
-0.00026925
-0.000315821
-0.000362748
-0.00041049
-0.000459563
-0.0005105
-0.000563838
-0.000620113
-0.000679856
-0.000743582
-0.000811791
-0.000884953
-0.000963492
-0.00104776
-0.00113799
-0.00123426
-0.00133641
-0.00144392
-0.00155577
-0.00167027
-0.00178475
-0.00189528
-0.0019962
-0.00207964
-0.00213501
-0.0021485
-0.00210702
-0.00202378
-0.0019115
-0.0017805
-0.0016389
-0.00149288
-0.001347
-0.00120454
-0.00106776
-0.000938166
-0.000816675
-0.000703781
-0.000599668
-0.000504301
-0.000417497
-0.000338973
-0.000268393
-0.000205394
-0.000149611
-0.000100701
-5.83568e-05
-2.23318e-05
7.54178e-06
3.13208e-05
4.89106e-05
6.00052e-05
6.40038e-05
5.98204e-05
4.73617e-05
2.80229e-05
1.09882e-05
1.21388e-06
-1.26538e-06
-1.49382e-05
-4.28684e-05
-8.45694e-05
-0.00013156
-0.000179325
-0.000226578
-0.000273707
-0.000320938
-0.000368666
-0.000417395
-0.000467673
-0.000520061
-0.000575123
-0.000633418
-0.000695499
-0.000761907
-0.000833167
-0.000909774
-0.000992177
-0.00108075
-0.00117576
-0.0012773
-0.00138519
-0.00149892
-0.00161745
-0.00173899
-0.00186078
-0.00197868
-0.00208675
-0.00217673
-0.00223744
-0.00225434
-0.00221335
-0.00212812
-0.00201205
-0.00187608
-0.00172878
-0.00157667
-0.00142455
-0.00127589
-0.00113308
-0.000997686
-0.000870689
-0.000752605
-0.00064363
-0.000543728
-0.000452706
-0.000370272
-0.000296071
-0.00022972
-0.000170836
-0.000119055
-7.40525e-05
-3.55604e-05
-3.393e-06
2.25237e-05
4.21083e-05
5.50585e-05
6.07583e-05
5.80913e-05
4.68757e-05
2.81417e-05
1.11762e-05
1.2634e-06
-1.31218e-06
-1.54129e-05
-4.41181e-05
-8.6845e-05
-0.000134626
-0.000182981
-0.000230762
-0.000278424
-0.000326277
-0.00037478
-0.000424484
-0.000475973
-0.00052984
-0.000586671
-0.000647051
-0.000711557
-0.000780754
-0.000855192
-0.000935395
-0.00102184
-0.00111492
-0.00121494
-0.00132198
-0.0014359
-0.00155617
-0.0016817
-0.00181065
-0.00194013
-0.0020658
-0.00218143
-0.00227832
-0.0023447
-0.00236523
-0.0023248
-0.00223749
-0.00211749
-0.00197631
-0.00182303
-0.00166453
-0.00150588
-0.00135073
-0.0012016
-0.00106016
-0.000927409
-0.000803909
-0.000689859
-0.000585222
-0.000489796
-0.000403272
-0.000325279
-0.000255415
-0.000193276
-0.000138477
-9.06732e-05
-4.95764e-05
-1.49818e-05
1.3202e-05
3.49062e-05
4.98302e-05
5.73378e-05
5.62715e-05
4.63762e-05
2.82892e-05
1.13938e-05
1.32132e-06
-1.35162e-06
-1.58185e-05
-4.51819e-05
-8.87722e-05
-0.000137201
-0.000186048
-0.000234314
-0.000282511
-0.000331018
-0.000380351
-0.000431104
-0.000483894
-0.000539338
-0.00059805
-0.000660639
-0.000727705
-0.000799841
-0.000877625
-0.000961606
-0.00105229
-0.00115011
-0.00125536
-0.00136819
-0.00148844
-0.00161556
-0.00174845
-0.0018852
-0.00202278
-0.00215666
-0.00228028
-0.0023845
-0.00245691
-0.00248135
-0.00244157
-0.00235215
-0.00222803
-0.00208141
-0.00192187
-0.00175666
-0.00159117
-0.00142922
-0.00127348
-0.0011257
-0.00098694
-0.000857787
-0.000738449
-0.000628885
-0.000528882
-0.000438113
-0.000356187
-0.000282681
-0.000217169
-0.000159245
-0.000108539
-6.47424e-05
-2.76304e-05
2.90761e-06
2.68184e-05
4.38076e-05
5.32257e-05
5.38844e-05
4.5475e-05
2.82294e-05
1.15424e-05
1.37432e-06
-1.39484e-06
-1.62448e-05
-4.62828e-05
-9.07465e-05
-0.000139791
-0.000189083
-0.000237781
-0.000286464
-0.000335594
-0.000385745
-0.000437555
-0.000491672
-0.000548743
-0.000609405
-0.000674291
-0.000744027
-0.000819233
-0.000900514
-0.000988448
-0.00108357
-0.00118634
-0.00129709
-0.00141597
-0.00154285
-0.00167718
-0.0018178
-0.00196275
-0.00210886
-0.00225139
-0.00238347
-0.00249545
-0.00257427
-0.00260289
-0.00256387
-0.00247227
-0.00234388
-0.00219158
-0.00202548
-0.00185326
-0.00168059
-0.00151153
-0.00134887
-0.00119446
-0.00104943
-0.000914384
-0.000789537
-0.000674846
-0.000570085
-0.000474908
-0.0003889
-0.000311613
-0.000242595
-0.000181415
-0.000127679
-8.10565e-05
-4.13004e-05
-8.28063e-06
1.79663e-05
3.71524e-05
4.86131e-05
5.11226e-05
4.43396e-05
2.80712e-05
1.16749e-05
1.43235e-06
-1.43214e-06
-1.66099e-05
-4.72149e-05
-9.24064e-05
-0.000141932
-0.000191572
-0.00024065
-0.000289807
-0.00033958
-0.000390595
-0.000443529
-0.000499061
-0.00055786
-0.000620587
-0.000687899
-0.000760446
-0.000838874
-0.000923818
-0.00101589
-0.00111565
-0.0012236
-0.00134009
-0.00146531
-0.00159913
-0.001741
-0.00188975
-0.00204332
-0.00219842
-0.00235008
-0.00249108
-0.00261129
-0.00269694
-0.00273004
-0.0026919
-0.00259806
-0.00246522
-0.00230698
-0.00213402
-0.00195446
-0.00177427
-0.00159775
-0.00142785
-0.00126651
-0.00111492
-0.000973716
-0.000843131
-0.000723113
-0.000613419
-0.000513684
-0.000423466
-0.00034229
-0.000269675
-0.000205159
-0.000148321
-9.88023e-05
-5.63282e-05
-2.07435e-05
7.93725e-06
2.94382e-05
4.30842e-05
4.76134e-05
4.26805e-05
2.76425e-05
1.172e-05
1.48528e-06
-1.46953e-06
-1.69601e-05
-4.80884e-05
-9.39397e-05
-0.000143849
-0.000193747
-0.000243133
-0.000292718
-0.000343117
-0.000395013
-0.000449115
-0.000506128
-0.000566743
-0.000631642
-0.000701501
-0.000776997
-0.000858802
-0.00094758
-0.00104397
-0.00114859
-0.00126194
-0.00138445
-0.00151629
-0.00165738
-0.00180715
-0.00196441
-0.00212704
-0.00229159
-0.00245287
-0.0026033
-0.00273221
-0.00282509
-0.00286297
-0.0028258
-0.00272967
-0.00259219
-0.00242773
-0.00224758
-0.00206031
-0.00187224
-0.0016879
-0.0015104
-0.0013418
-0.00118334
-0.0010357
-0.000899114
-0.000773539
-0.000658714
-0.00055425
-0.00045968
-0.000374498
-0.000298192
-0.000230266
-0.000170266
-0.000117796
-7.25466e-05
-3.43264e-05
-3.1157e-06
2.08372e-05
3.68672e-05
4.37021e-05
4.09125e-05
2.73271e-05
1.1833e-05
1.5462e-06
-1.50756e-06
-1.73348e-05
-4.90148e-05
-9.54767e-05
-0.000145642
-0.000195667
-0.000245282
-0.000295275
-0.000346332
-0.000399177
-0.000454542
-0.000513149
-0.000575703
-0.000642903
-0.000715446
-0.000794032
-0.000879363
-0.000972134
-0.00107303
-0.00118268
-0.00130166
-0.00143041
-0.00156915
-0.00171781
-0.00187585
-0.00204202
-0.00221413
-0.0023886
-0.00256
-0.00272035
-0.00285843
-0.00295894
-0.00300187
-0.00296574
-0.00286718
-0.00272479
-0.00255375
-0.00236599
-0.00217057
-0.00197416
-0.00178154
-0.00159599
-0.00141969
-0.00125394
-0.00109947
-0.000956526
-0.000825055
-0.00070479
-0.00059532
-0.000496154
-0.000406758
-0.000326587
-0.000255114
-0.000191846
-0.000136352
-8.82811e-05
-4.73972e-05
-1.36295e-05
1.28411e-05
3.14557e-05
4.11072e-05
4.04968e-05
2.85504e-05
1.26293e-05
1.69931e-06
-1.58301e-06
-1.80692e-05
-5.08325e-05
-9.80811e-05
-0.000148489
-0.000198414
-0.00024816
-0.000298558
-0.000350321
-0.000404191
-0.000460908
-0.000521199
-0.000585779
-0.000655364
-0.000730673
-0.000812434
-0.000901381
-0.000998249
-0.00110376
-0.0012186
-0.00134338
-0.00147857
-0.00162446
-0.00178098
-0.00194759
-0.00212305
-0.00230505
-0.00248989
-0.00267187
-0.00284263
-0.00299034
-0.00309887
-0.0031471
-0.00311205
-0.00301091
-0.0028633
-0.00268528
-0.00248946
-0.00228539
-0.00208014
-0.00187873
-0.00168465
-0.00150017
-0.00132669
-0.00116495
-0.00101523
-0.000877476
-0.000751402
-0.00063658
-0.000532495
-0.000438585
-0.000354277
-0.000279013
-0.000212272
-0.000153592
-0.00010259
-5.89978e-05
-2.27065e-05
6.15441e-06
2.7114e-05
3.9202e-05
4.03666e-05
2.98151e-05
1.34382e-05
1.85997e-06
-1.73337e-06
-1.93927e-05
-5.40972e-05
-0.000102253
-0.000153178
-0.000202811
-0.000252714
-0.000303637
-0.00035624
-0.000411246
-0.000469396
-0.000531426
-0.00059807
-0.000670066
-0.000748161
-0.00083312
-0.000925717
-0.00102673
-0.00113693
-0.00125704
-0.00138774
-0.00152954
-0.00168276
-0.00184738
-0.00202286
-0.00220792
-0.00240021
-0.00259585
-0.00278888
-0.00297052
-0.00312834
-0.00324532
-0.00329915
-0.00326526
-0.00316143
-0.00300836
-0.00282302
-0.00261873
-0.00240558
-0.00219104
-0.00198041
-0.00177737
-0.00158432
-0.00140273
-0.00123339
-0.00107659
-0.000932259
-0.000800117
-0.000679706
-0.000570484
-0.000471861
-0.000383232
-0.000304011
-0.000233647
-0.000171648
-0.000117607
-7.12271e-05
-3.23782e-05
-1.17332e-06
2.19195e-05
3.59184e-05
3.8799e-05
2.95482e-05
1.35965e-05
1.94106e-06
-1.83994e-06
-2.03797e-05
-5.66373e-05
-0.000105636
-0.000157305
-0.000207184
-0.000257608
-0.000309293
-0.000362881
-0.000419109
-0.000478744
-0.00054255
-0.000611291
-0.000685736
-0.000766671
-0.000854898
-0.000951234
-0.0010565
-0.00117153
-0.00129709
-0.0014339
-0.00158254
-0.00174337
-0.0019164
-0.00210111
-0.0022962
-0.00249923
-0.00270618
-0.00291082
-0.00310394
-0.00327242
-0.00339835
-0.00345818
-0.00342561
-0.00331903
-0.00316029
-0.00296732
-0.00275417
-0.00253154
-0.00230728
-0.00208701
-0.00187459
-0.00167258
-0.00148252
-0.00130524
-0.00114104
-0.000989863
-0.000851401
-0.000725179
-0.000610624
-0.000507113
-0.000414012
-0.000330699
-0.000256591
-0.000191164
-0.000133978
-8.47065e-05
-4.31904e-05
-9.51774e-06
1.5857e-05
3.19526e-05
3.67684e-05
2.90637e-05
1.3699e-05
2.02436e-06
-1.87501e-06
-2.07912e-05
-5.77726e-05
-0.000107495
-0.000159764
-0.00021027
-0.000261397
-0.000313921
-0.000368541
-0.000426037
-0.000487211
-0.000552863
-0.000623786
-0.000700786
-0.000784684
-0.000876323
-0.000976563
-0.00108628
-0.00120634
-0.00133758
-0.00148079
-0.00163658
-0.00180538
-0.00198723
-0.00218163
-0.00238726
-0.00260162
-0.00282051
-0.00303743
-0.00324271
-0.00342254
-0.00355804
-0.00362432
-0.00359328
-0.00348392
-0.00331931
-0.00311837
-0.00289597
-0.0026634
-0.00242896
-0.00219858
-0.00197634
-0.00176493
-0.00156598
-0.00138036
-0.0012084
-0.00105004
-0.00090495
-0.00077263
-0.000652479
-0.000543843
-0.000446054
-0.000358454
-0.000280426
-0.000211414
-0.000150945
-9.86618e-05
-5.43752e-05
-1.8148e-05
9.57956e-06
2.78274e-05
3.46254e-05
2.85298e-05
1.3804e-05
2.11467e-06
-1.91764e-06
-2.12432e-05
-5.897e-05
-0.000109333
-0.00016208
-0.000213085
-0.000264833
-0.000318159
-0.000373807
-0.000432588
-0.000495337
-0.00056288
-0.000636042
-0.000715664
-0.000802605
-0.000897751
-0.00100201
-0.00111631
-0.00124158
-0.00137871
-0.00152855
-0.00169179
-0.00186889
-0.00205995
-0.0022645
-0.00248119
-0.00270746
-0.00293894
-0.00316884
-0.00338699
-0.00357889
-0.0037246
-0.00379785
-0.00376858
-0.00365643
-0.00348574
-0.00327651
-0.00304445
-0.00280149
-0.00255639
-0.00231542
-0.0020829
-0.00186164
-0.00165338
-0.00145904
-0.00127896
-0.00111308
-0.000961044
-0.000822342
-0.000696336
-0.000582339
-0.000479645
-0.000387564
-0.000305442
-0.000232688
-0.000168796
-0.000113376
-6.62065e-05
-2.73226e-05
2.8516e-06
2.33398e-05
3.22118e-05
2.78472e-05
1.38717e-05
2.20863e-06
-1.95589e-06
-2.16677e-05
-6.01075e-05
-0.000111083
-0.000164299
-0.000215813
-0.000268196
-0.000322339
-0.000379026
-0.000439108
-0.000503448
-0.000572904
-0.000648336
-0.00073062
-0.000820659
-0.000919384
-0.00102776
-0.00114676
-0.00127738
-0.00142059
-0.00157729
-0.00174824
-0.00193397
-0.00213463
-0.00234978
-0.00257806
-0.00281682
-0.00306156
-0.00330516
-0.00353696
-0.00374168
-0.00389829
-0.00397906
-0.00395184
-0.0038369
-0.00365993
-0.00344208
-0.00319993
-0.00294609
-0.00268984
-0.00243778
-0.00219448
-0.00196292
-0.00174491
-0.00154144
-0.00135286
-0.0011791
-0.00101981
-0.000874438
-0.000742315
-0.000622719
-0.000514906
-0.000418149
-0.000331757
-0.000255103
-0.000187645
-0.000128959
-7.87891e-05
-3.71414e-05
-4.4211e-06
1.84029e-05
2.94519e-05
2.69599e-05
1.38748e-05
2.30153e-06
-1.99396e-06
-2.20855e-05
-6.12208e-05
-0.000112769
-0.000166411
-0.0002184
-0.000271391
-0.000326331
-0.000384049
-0.000445431
-0.000511373
-0.000582763
-0.000660497
-0.000745489
-0.000838686
-0.00094107
-0.00105366
-0.00117749
-0.00131362
-0.0014631
-0.00162689
-0.00180584
-0.00200054
-0.00221121
-0.00243742
-0.00267784
-0.00292974
-0.00318844
-0.00344651
-0.00369277
-0.00391113
-0.0040794
-0.00416828
-0.00414341
-0.00402569
-0.00384226
-0.00361543
-0.00336275
-0.00309755
-0.00282962
-0.00256595
-0.00231135
-0.00206898
-0.00184076
-0.00162771
-0.00143022
-0.00124822
-0.00108133
-0.000928974
-0.000790451
-0.000664999
-0.000551837
-0.000450195
-0.000359345
-0.00027862
-0.000207442
-0.00014535
-9.20538e-05
-4.75289e-05
-1.21603e-05
1.30927e-05
2.64104e-05
2.59089e-05
1.38317e-05
2.39672e-06
-2.03161e-06
-2.24956e-05
-6.23099e-05
-0.000114397
-0.000168435
-0.000220877
-0.000274459
-0.000330185
-0.000388927
-0.000451607
-0.000519152
-0.000592486
-0.000672541
-0.000760274
-0.000856679
-0.000962788
-0.00107968
-0.00120846
-0.00135025
-0.00150618
-0.00167731
-0.00186454
-0.00206856
-0.00228965
-0.00252743
-0.00278057
-0.00304626
-0.00331967
-0.00359303
-0.0038546
-0.00408746
-0.0042682
-0.00436585
-0.00434366
-0.0042232
-0.00403309
-0.00379693
-0.00353326
-0.00325617
-0.002976
-0.00270016
-0.00243372
-0.00218001
-0.00194107
-0.00171798
-0.00151115
-0.00132049
-0.00114563
-0.000985949
-0.000840712
-0.00070912
-0.000590349
-0.000483589
-0.000388071
-0.000303089
-0.000228025
-0.000162381
-0.000105833
-5.83202e-05
-2.02083e-05
7.55262e-06
2.32032e-05
2.4771e-05
1.37798e-05
2.5003e-06
-2.06723e-06
-2.28802e-05
-6.33276e-05
-0.000115889
-0.000170268
-0.000223124
-0.000277268
-0.00033376
-0.000393513
-0.000457482
-0.000526631
-0.000601917
-0.000684311
-0.000774813
-0.000874469
-0.000984368
-0.00110565
-0.00123949
-0.00138711
-0.00154969
-0.00172839
-0.00192421
-0.00213792
-0.00236987
-0.00261975
-0.0028862
-0.0031664
-0.0034553
-0.00374482
-0.00402263
-0.00427092
-0.00446499
-0.00457211
-0.00455299
-0.00442982
-0.00423284
-0.00398698
-0.00371184
-0.00342231
-0.00312934
-0.00284074
-0.00256189
-0.00229629
-0.00204611
-0.00181249
-0.00159585
-0.00139613
-0.0012129
-0.00104554
-0.000893272
-0.000755249
-0.000630607
-0.000518492
-0.000418093
-0.000328663
-0.000249544
-0.000180199
-0.000120265
-6.96478e-05
-2.86889e-05
1.67085e-06
1.97359e-05
2.34788e-05
1.36874e-05
2.60821e-06
-2.09791e-06
-2.32212e-05
-6.42334e-05
-0.000117184
-0.000171832
-0.000225049
-0.000279715
-0.000336939
-0.000397677
-0.00046292
-0.000533664
-0.000610902
-0.000695647
-0.000788948
-0.0008919
-0.00100566
-0.00113142
-0.00127046
-0.00142405
-0.00159349
-0.00178001
-0.00198474
-0.00220852
-0.0024518
-0.00271431
-0.00299474
-0.00329017
-0.00359542
-0.00390201
-0.00419705
-0.00446178
-0.0046701
-0.00478746
-0.00477181
-0.004646
-0.00444195
-0.00418601
-0.0038989
-0.00359638
-0.00329
-0.00298804
-0.00269617
-0.00241812
-0.00215615
-0.00191147
-0.00168456
-0.00147533
-0.00128334
-0.00110793
-0.000948295
-0.000803537
-0.00067275
-0.000555034
-0.000449533
-0.000355455
-0.000272102
-0.000198895
-0.00013543
-8.15781e-05
-3.76554e-05
-4.593e-06
1.59804e-05
2.20154e-05
1.35503e-05
2.72084e-06
-2.12573e-06
-2.35361e-05
-6.50709e-05
-0.000118351
-0.000173214
-0.000226745
-0.000281887
-0.000339803
-0.00040149
-0.000467974
-0.000540287
-0.000619464
-0.000706559
-0.000802672
-0.000908954
-0.00102662
-0.00115696
-0.0013013
-0.00146102
-0.00163751
-0.00183212
-0.00204607
-0.00228032
-0.00253539
-0.00281112
-0.00310619
-0.00341765
-0.00374012
-0.00406478
-0.0043781
-0.00466032
-0.00488391
-0.00501233
-0.0050006
-0.00487224
-0.00466093
-0.00439452
-0.00409491
-0.00377879
-0.00345838
-0.00314242
-0.00283691
-0.0025458
-0.00227147
-0.00201522
-0.00177753
-0.00155832
-0.00135715
-0.00117331
-0.00100595
-0.000854139
-0.000716915
-0.000593333
-0.000482491
-0.000383552
-0.000295771
-0.000218529
-0.000151379
-9.41544e-05
-4.71443e-05
-1.12698e-05
1.19095e-05
2.03581e-05
1.3357e-05
2.83725e-06
-2.15259e-06
-2.38378e-05
-6.58708e-05
-0.000119441
-0.000174481
-0.000228291
-0.000283877
-0.00034245
-0.000405052
-0.000472744
-0.000546598
-0.000627687
-0.000717114
-0.000816032
-0.000925655
-0.00104727
-0.00118223
-0.00133198
-0.00149797
-0.00168171
-0.00188465
-0.00210814
-0.00235325
-0.00262063
-0.00291016
-0.00322058
-0.00354889
-0.00388954
-0.00423332
-0.00456604
-0.0048669
-0.00510683
-0.0052472
-0.0052399
-0.00510907
-0.00489031
-0.00461301
-0.00430037
-0.00397001
-0.00363491
-0.00330428
-0.00298448
-0.00267966
-0.00239238
-0.00212399
-0.001875
-0.00164535
-0.00143455
-0.00124187
-0.00106642
-0.000907214
-0.000763247
-0.000633522
-0.000517087
-0.000413058
-0.000320646
-0.000239185
-0.000168186
-0.000107442
-5.72134e-05
-1.84096e-05
7.48001e-06
1.84721e-05
1.30903e-05
2.95459e-06
-2.17541e-06
-2.41066e-05
-6.65882e-05
-0.000120385
-0.000175544
-0.000229585
-0.000285566
-0.000344752
-0.000408224
-0.000477087
-0.000552446
-0.00063542
-0.000727162
-0.000828882
-0.000941861
-0.00106746
-0.00120712
-0.00136236
-0.00153477
-0.00172596
-0.0019375
-0.00217086
-0.00242725
-0.00270744
-0.00301141
-0.00333794
-0.00368398
-0.00404381
-0.00440783
-0.00476115
-0.00508188
-0.00533931
-0.00549259
-0.00549025
-0.00535708
-0.00513065
-0.00484205
-0.0045158
-0.00417056
-0.00382005
-0.00347404
-0.00313924
-0.00282006
-0.00251918
-0.00223804
-0.00197719
-0.00173657
-0.00151567
-0.00131373
-0.00112979
-0.000962837
-0.000811805
-0.000675646
-0.000553357
-0.000444003
-0.000346746
-0.000260877
-0.000185859
-0.000121443
-6.78583e-05
-2.60032e-05
2.70115e-06
1.63614e-05
1.2752e-05
3.07376e-06
-2.19865e-06
-2.4371e-05
-6.72863e-05
-0.000121274
-0.000176511
-0.000230733
-0.000287054
-0.000346792
-0.000411076
-0.000481048
-0.000557859
-0.000642674
-0.000736699
-0.000841204
-0.000957539
-0.00108715
-0.00123156
-0.0013924
-0.00157136
-0.00177018
-0.00199058
-0.00223416
-0.00250227
-0.00279581
-0.00311488
-0.00345831
-0.00382302
-0.0042031
-0.00458855
-0.00496376
-0.00530566
-0.00558184
-0.00574906
-0.00575226
-0.00561687
-0.00538257
-0.00508222
-0.00474176
-0.00438094
-0.00401429
-0.00365215
-0.0033016
-0.00296733
-0.00265217
-0.00235764
-0.00208435
-0.00183221
-0.00160071
-0.00138903
-0.00119619
-0.00102111
-0.000862667
-0.000719765
-0.000591344
-0.000476416
-0.000374094
-0.000283616
-0.000204401
-0.000136154
-7.90721e-05
-3.40411e-05
-2.41746e-06
1.40316e-05
1.23462e-05
3.19566e-06
-2.2219e-06
-2.46274e-05
-6.79568e-05
-0.000122099
-0.000177374
-0.000231734
-0.000288346
-0.000348584
-0.00041362
-0.000484642
-0.000562843
-0.000649439
-0.000745694
-0.000852946
-0.000972621
-0.00110625
-0.00125545
-0.00142197
-0.00160763
-0.00181429
-0.00204381
-0.00229796
-0.00257825
-0.00288572
-0.00322058
-0.00358175
-0.00396612
-0.00436758
-0.00477574
-0.00517421
-0.00553868
-0.00583492
-0.00601717
-0.00602654
-0.00588908
-0.00564669
-0.00533411
-0.00497882
-0.00460169
-0.00421812
-0.00383904
-0.00347197
-0.00312185
-0.00279168
-0.0024831
-0.00219672
-0.00193249
-0.00168984
-0.00146794
-0.00126575
-0.00108213
-0.000915913
-0.000765933
-0.000631077
-0.000510303
-0.000402671
-0.000307368
-0.000223764
-0.000151517
-9.07914e-05
-4.24594e-05
-7.81964e-06
1.15211e-05
1.18931e-05
3.3252e-06
-2.24115e-06
-2.4849e-05
-6.85381e-05
-0.000122762
-0.000178003
-0.00023243
-0.000289263
-0.000349928
-0.000415648
-0.000487651