/*--------------------------------*- C++ -*----------------------------------*\
| =========                 |                                                 |
| \\      /  F ield         | OpenFOAM: The Open Source CFD Toolbox           |
|  \\    /   O peration     | Version:  2412                                  |
|   \\  /    A nd           | Website:  www.openfoam.com                      |
|    \\/     M anipulation  |                                                 |
\*---------------------------------------------------------------------------*/
FoamFile
{
    version     2.0;
    format      ascii;
    arch        "LSB;label=32;scalar=64";
    class       volScalarField;
    location    "2000";
    object      Uz;
}
// * * * * * * * * * * * * * * * * * * * * * * * * * * * * * * * * * * * * * //

dimensions      [0 1 -1 0 0 0 0];

internalField   nonuniform List<scalar> 
32240
(
0
0
0
0
0
0
0
4.0081e-26
3.12513e-26
-5.41417e-26
0
0
-2.82212e-26
2.49594e-26
0
0
-1.90716e-26
1.76058e-26
0
0
0
0
-2.64361e-26
6.14937e-26
-3.51591e-26
-5.72866e-26
5.74327e-26
0
0
0
0
0
0
1.02853e-25
8.315e-27
1.21515e-25
-2.24225e-25
0
0
0
0
0
0
0
0
0
0
0
-3.63969e-25
3.88006e-25
2.11286e-25
-2.30626e-25
0
0
0
0
0
0
0
0
3.40293e-25
-4.50358e-25
0
0
0
-1.89325e-25
2.62235e-25
0
0
-1.27998e-24
9.79405e-25
-7.65211e-25
6.14943e-25
0
0
0
-6.25441e-25
5.46558e-25
4.83275e-25
-4.32344e-25
7.81374e-25
-1.42873e-24
6.60134e-25
6.14438e-25
-5.79869e-25
0
0
5.07458e-25
-9.90455e-25
4.23055e-27
4.80922e-25
0
0
0
-2.35837e-25
4.37027e-27
2.45074e-25
0
2.34436e-25
-4.55828e-25
-2.1645e-25
4.09072e-27
8.3869e-25
-1.50346e-27
-4.0862e-25
4.07548e-25
-4.08269e-25
-4.1487e-25
4.20447e-25
4.34827e-25
-4.46765e-25
4.69904e-25
-9.85184e-25
5.21123e-25
0
0
-3.3435e-25
3.69556e-25
4.19179e-25
-4.79777e-25
-5.65059e-25
6.78395e-25
4.21711e-25
-5.42158e-25
0
5.04175e-25
-6.75131e-25
0
0
0
0
0
-1.28673e-24
1.08844e-24
0
0
0
0
1.34431e-24
-1.12587e-24
9.59522e-25
-8.27678e-25
7.24715e-25
-6.40952e-25
0
0
9.56989e-25
-8.85464e-25
8.32139e-25
-1.57426e-24
1.50633e-24
-7.26361e-25
0
0
0
6.96404e-25
-6.98692e-25
0
-7.29461e-25
3.70403e-25
-2.40263e-27
1.98288e-25
-1.53496e-27
-2.08111e-25
8.12429e-25
-4.00055e-25
0
0
-7.90739e-25
7.84434e-25
7.93705e-25
5.81679e-27
-8.0598e-25
0
-8.48872e-25
-5.00623e-27
9.07137e-25
0
0
-1.07995e-24
2.32734e-24
-6.32877e-25
1.83666e-27
-1.58513e-24
-1.65118e-27
1.06344e-24
0
7.9332e-25
-1.0208e-24
0
-9.5349e-25
1.28352e-24
7.87005e-25
-1.3198e-24
3.19779e-25
0
0
-1.91773e-24
1.61296e-24
0
-1.91461e-24
2.97273e-24
-1.1893e-24
0
0
0
-1.19644e-24
-8.39641e-28
9.25565e-25
1.66105e-24
-1.50526e-24
0
0
0
0
0
0
-1.0258e-24
1.00671e-24
0
9.97272e-25
-1.00163e-24
0
-1.03292e-24
-9.13584e-28
1.08556e-24
0
0
0
1.11918e-24
3.09504e-27
-1.08058e-24
1.07081e-24
4.0044e-27
-2.10748e-24
1.05077e-24
0
0
0
-1.11156e-24
-4.56718e-27
1.18253e-24
0
0
-1.39522e-24
1.49865e-24
8.19191e-25
-1.80931e-24
1.01542e-24
0
1.36243e-24
-1.63566e-24
1.0156e-24
-1.30925e-24
0
0
0
-1.03822e-24
1.75144e-24
-4.26098e-25
0
1.35161e-24
-1.2216e-24
0
0
0
0
-2.9901e-24
2.44681e-24
0
-1.7359e-24
1.49531e-24
2.61563e-24
1.98745e-27
2.02752e-27
-1.88341e-24
1.73142e-24
-1.6055e-24
1.50899e-24
-1.42851e-24
0
0
0
1.27248e-24
-1.25989e-24
0
0
0
1.31574e-24
-1.34552e-24
0
0
-3.61974e-25
1.09878e-24
-2.15952e-24
1.4129e-24
1.39847e-24
-1.37608e-24
0
1.3622e-24
-2.71555e-24
2.72549e-24
-1.37227e-24
0
0
0
1.52122e-24
-1.58401e-24
0
-1.78132e-24
1.91204e-24
0
-1.15249e-24
-1.86819e-27
1.47772e-24
1.73053e-24
-2.07745e-24
0
1.66472e-24
-2.25066e-24
-3.15341e-24
6.46713e-24
-2.68409e-24
7.57524e-25
-5.54514e-25
-6.1183e-25
4.19365e-24
-3.02041e-24
0
0
0
4.53513e-24
-3.61176e-24
0
0
0
0
0
0
2.50162e-24
2.11955e-27
-4.17713e-24
1.94044e-24
0
0
0
0
0
0
0
0
0
0
0
0
-8.45769e-25
4.35144e-25
4.38617e-25
8.90473e-25
-8.71328e-25
0
-1.69068e-24
1.6623e-24
-1.65013e-24
1.63281e-24
0
0
0
-1.66998e-24
3.39974e-24
-1.74249e-24
0
0
0
-2.106e-24
2.25732e-24
0
0
0
0
0
2.43354e-24
-3.01786e-24
1.95051e-24
5.39563e-28
-3.72528e-24
0
1.61731e-24
-9.18823e-25
-6.75441e-25
0
-3.99034e-24
3.58271e-24
-5.94964e-24
4.57568e-24
3.44463e-24
-2.65374e-24
0
0
0
-2.42848e-24
2.09032e-24
0
0
0
0
0
0
0
0
0
0
0
0
0
0
0
0
0
0
0
0
0
0
0
-2.01885e-24
1.97983e-24
-1.95775e-24
1.9293e-24
1.91999e-24
-3.81911e-24
-5.94446e-27
-5.84504e-27
3.8921e-24
-1.97912e-24
-2.03508e-24
2.09704e-24
0
0
0
0
0
0
0
0
0
2.80781e-24
-3.48351e-24
0
3.06113e-24
-8.65856e-24
6.01667e-24
0
0
0
0
0
0
0
5.23501e-24
9.13814e-28
-3.0146e-24
4.78438e-24
1.30745e-27
-3.23822e-24
0
0
0
3.66608e-24
-3.29267e-24
0
2.7626e-24
-2.57085e-24
0
2.30547e-24
-4.42661e-24
2.14456e-24
0
0
0
-2.06608e-24
2.08092e-24
2.11628e-24
-2.15658e-24
0
-1.14177e-24
1.1781e-24
0
0
0
-2.31254e-24
4.53941e-24
-4.4705e-24
4.41474e-24
-4.37467e-24
4.35272e-24
-2.17252e-24
0
0
0
-2.3047e-24
-5.55794e-27
4.94053e-24
5.22646e-27
-2.7447e-24
0
3.19533e-24
-7.02605e-24
3.92659e-24
0
0
-3.13349e-24
3.88549e-24
-2.51426e-24
3.42024e-24
0
0
0
0
0
-1.94692e-24
2.64677e-24
0
0
0
0
0
0
4.3463e-24
-3.60873e-24
0
-5.26208e-24
4.5991e-24
0
3.67199e-24
-3.34209e-24
0
0
0
0
0
0
0
0
0
0
0
2.3835e-24
-2.42998e-24
0
-1.28699e-24
1.32808e-24
0
0
0
0
0
0
0
0
0
0
-2.4496e-24
-6.20369e-27
2.50664e-24
0
0
0
0
0
0
0
0
0
0
0
0
0
0
0
0
0
4.91702e-24
-5.67693e-24
0
0
0
0
8.6303e-24
1.0321e-27
-4.85158e-24
0
0
0
0
0
0
0
0
0
0
0
0
0
0
0
0
0
0
-5.13966e-24
2.57045e-24
-4.16556e-27
2.64275e-24
-2.70452e-24
2.77121e-24
0
0
0
0
2.94722e-24
-2.88263e-24
0
2.78895e-24
-2.74269e-24
5.43942e-24
-5.38821e-24
0
-5.40431e-24
8.16287e-24
-2.75946e-24
0
0
0
0
0
0
0
0
2.36503e-24
-2.68777e-24
0
3.74972e-24
-4.64709e-24
0
0
0
0
0
3.17285e-24
-2.3708e-24
2.4464e-24
-3.30523e-24
0
9.50841e-24
-1.42994e-23
-1.02224e-27
4.04175e-24
0
5.16565e-24
-4.28171e-24
0
0
0
0
4.37262e-24
-3.98801e-24
3.68754e-24
3.43391e-27
3.56588e-27
-3.10278e-24
0
0
0
0
5.63248e-24
-1.13026e-23
2.84936e-24
5.80794e-24
-2.96574e-24
0
0
0
0
0
3.23653e-24
-3.16442e-24
0
3.05713e-24
-3.00442e-24
0
0
0
0
0
-3.01183e-24
3.06772e-24
0
0
0
-3.61766e-24
3.85636e-24
0
0
-2.54948e-24
2.89452e-24
-3.36928e-24
4.02929e-24
0
3.23602e-24
8.84639e-28
-6.36733e-24
-4.57681e-24
6.00289e-24
0
3.8318e-35
0
0
-6.40897e-24
5.17614e-24
0
-5.71252e-24
-4.34804e-24
6.84164e-24
0
-4.59075e-24
3.88179e-24
-6.69087e-24
1.17181e-23
-1.0421e-23
4.69774e-24
0
3.97345e-24
3.65823e-27
-3.51182e-24
0
0
0
0
0
6.11731e-24
-6.13742e-24
0
0
0
-3.3207e-24
5.1288e-24
-8.81648e-25
-1.77729e-24
-9.01169e-25
1.75726e-24
0
0
-3.32116e-24
3.26177e-24
0
0
0
0
0
3.25163e-24
-3.30877e-24
0
0
0
-3.88401e-24
-5.77903e-27
8.93398e-24
5.45417e-27
-2.71761e-24
2.58642e-27
2.52013e-27
-4.28753e-24
0
0
0
6.80321e-24
-9.86391e-24
0
0
0
0
0
0
1.11953e-23
-8.31895e-24
0
0
7.3009e-24
-5.90066e-24
4.8881e-24
-1.24003e-23
7.12095e-24
0
0
-5.01616e-24
9.1728e-24
-4.24462e-24
3.97895e-24
-3.76274e-24
-3.60235e-24
3.47395e-24
0
0
0
0
0
0
0
0
-3.58709e-24
3.69207e-24
0
9.61063e-25
9.73327e-25
-1.89771e-24
0
0
0
0
0
-6.88321e-24
1.36812e-23
-6.83295e-24
0
0
0
3.64071e-24
6.58692e-27
-7.85083e-24
8.27125e-24
-8.80904e-24
-5.8584e-27
5.1899e-24
0
0
-3.7976e-24
4.53197e-24
-5.6121e-24
1.08977e-23
-4.97629e-24
0
5.27793e-24
-7.05582e-24
-4.1798e-24
3.16749e-24
0
0
0
0
0
0
0
0
0
0
0
0
6.60666e-24
-1.17676e-23
-3.72828e-27
-3.87352e-27
4.51082e-24
4.23321e-24
-4.00752e-24
0
0
0
0
0
0
-7.10125e-24
7.17996e-24
0
0
0
0
0
0
0
-4.08086e-24
3.98565e-24
0
0
-7.53998e-24
7.41796e-24
0
0
0
0
0
0
0
0
0
0
0
0
5.48272e-24
-6.08025e-24
0
0
0
0
0
-5.22115e-24
1.52021e-23
-1.12071e-23
0
0
0
0
-9.26038e-24
8.06428e-24
0
0
-6.86605e-24
5.18819e-24
8.12919e-24
-6.55822e-24
-5.429e-24
4.59067e-24
0
0
0
0
0
0
0
0
0
0
0
0
0
0
0
0
0
0
0
0
0
0
0
0
0
0
0
0
0
0
0
0
0
-7.85687e-24
7.97198e-24
-4.08919e-24
4.21314e-24
4.39352e-24
6.76943e-27
-4.89958e-24
-5.27625e-24
5.74804e-24
0
0
0
0
0
-3.97142e-24
5.44596e-24
0
-5.91561e-24
8.06682e-24
4.84717e-24
-3.71223e-24
0
9.92085e-24
-1.7206e-23
2.03653e-23
-9.90773e-24
-1.44163e-23
1.08712e-23
0
0
-5.67612e-24
-4.8049e-24
-3.83672e-27
1.45606e-23
-6.49545e-24
-5.88564e-24
5.39662e-24
5.01745e-24
-4.70977e-24
0
-8.59003e-24
8.30804e-24
0
0
-7.95564e-24
7.9494e-24
0
0
0
0
0
0
0
0
0
0
0
4.42249e-24
-4.32311e-24
0
0
0
8.20863e-24
-8.1698e-24
8.20955e-24
-8.26658e-24
0
0
-4.43565e-24
4.60545e-24
4.84285e-24
-5.13218e-24
5.51982e-24
-6.0055e-24
6.65586e-24
-7.50681e-24
0
0
-6.37235e-24
8.2348e-24
-5.65109e-24
8.28121e-24
0
0
5.17783e-24
-3.98783e-24
-3.99626e-24
1.58685e-23
-9.13487e-24
-1.433e-23
-1.31896e-27
7.53381e-24
0
0
-7.14239e-24
1.18171e-23
-1.50041e-23
8.63496e-24
7.59469e-24
-6.78043e-24
0
5.6497e-24
-5.24917e-24
0
-4.69823e-24
4.50593e-24
8.74595e-24
-8.54203e-24
8.43597e-24
-8.37396e-24
8.39778e-24
-8.45424e-24
0
0
0
0
0
0
1.23645e-24
-1.24687e-24
0
-4.77758e-24
4.66238e-24
-9.14575e-24
8.95311e-24
-8.82502e-24
-1.7777e-26
8.62179e-24
0
0
8.69413e-24
-8.8049e-24
0
0
0
5.05733e-24
-5.35321e-24
0
-6.2553e-24
6.90916e-24
3.89783e-24
-4.49493e-24
5.34412e-24
-6.58266e-24
0
0
0
6.48446e-24
4.50304e-29
-5.50613e-24
-4.26522e-24
0
-1.12332e-23
1.93151e-23
-7.52661e-24
0
-1.56797e-23
-2.3092e-27
9.19204e-24
0
0
0
0
-7.89294e-24
-4.60157e-27
6.4002e-24
0
0
0
0
9.44508e-24
-1.83157e-23
1.79278e-23
1.24933e-26
1.27291e-26
-8.81387e-24
8.90481e-24
-9.0244e-24
0
0
0
0
-1.2967e-24
1.29996e-24
0
0
-5.03007e-24
9.82257e-24
4.81886e-24
-9.41049e-24
0
-9.14437e-24
9.04166e-24
-9.02031e-24
9.01211e-24
0
-4.60916e-24
9.40297e-24
-4.83354e-24
-5.02428e-24
1.05188e-23
-1.11369e-23
5.96311e-24
6.48608e-24
-7.15414e-24
0
-4.64404e-24
1.10152e-23
-6.77707e-24
-8.74932e-24
1.20005e-23
0
0
0
0
0
0
0
0
0
-1.12918e-23
2.43808e-23
2.39072e-27
2.25898e-27
-7.65257e-24
0
0
0
0
-7.31854e-24
1.32908e-23
-6.11463e-24
5.70324e-24
-5.36982e-24
0
0
9.56783e-24
1.29511e-26
-9.2467e-24
0
0
0
0
0
0
0
-2.63277e-24
1.3567e-24
-2.6516e-27
1.37886e-24
0
0
5.15548e-24
-5.03123e-24
9.87643e-24
-9.68251e-24
0
-9.46834e-24
9.40031e-24
9.42116e-24
-9.46134e-24
-4.8003e-24
-8.69313e-27
5.02429e-24
5.21727e-24
-5.45155e-24
0
6.17874e-24
-6.69631e-24
-7.39143e-24
4.14654e-24
4.77553e-24
0
0
0
0
0
0
9.92487e-24
-1.23017e-23
0
0
1.25253e-23
6.69293e-28
-8.21361e-24
0
0
1.2573e-23
-9.79281e-24
0
0
0
0
0
7.56765e-24
-1.37573e-23
1.26772e-23
-5.90984e-24
0
1.06433e-23
-1.0236e-23
9.96154e-24
-9.75372e-24
0
9.62111e-24
-9.64028e-24
9.75225e-24
-9.89382e-24
0
0
5.34072e-24
-8.2582e-24
2.84484e-24
0
0
0
0
-5.39004e-24
5.25727e-24
0
-1.01238e-23
9.95267e-24
0
-9.80576e-24
9.78034e-24
9.85182e-24
-1.99189e-23
5.06113e-24
5.20707e-24
-5.40167e-24
5.63821e-24
0
6.37565e-24
-6.90086e-24
0
0
0
0
0
0
6.27808e-24
-9.29679e-24
0
0
0
0
0
0
0
0
0
1.72876e-23
-1.29248e-23
0
-8.10286e-24
1.34171e-23
-5.68931e-24
0
0
0
0
0
0
5.77869e-24
5.52167e-24
-1.0617e-23
0
-1.01485e-23
2.00674e-23
-9.99648e-24
1.00535e-23
-1.01458e-23
1.03298e-23
-1.05381e-23
0
-5.57351e-24
2.86689e-24
2.96899e-24
1.49312e-24
-1.50579e-24
-5.89797e-24
5.74737e-24
0
1.09766e-23
-1.07183e-23
-1.05343e-23
2.07176e-23
-1.02287e-23
-1.01793e-23
1.01444e-23
1.02097e-23
-1.03025e-23
0
0
-5.57714e-24
5.81535e-24
0
0
0
0
0
0
0
0
9.33415e-24
-1.91721e-23
9.48311e-24
0
-1.0749e-23
1.35461e-23
-7.83247e-35
-5.30715e-24
6.89078e-24
0
0
0
0
-1.32549e-23
2.06266e-23
2.60802e-27
-1.37569e-23
-5.84268e-24
1.01208e-23
0
0
0
0
0
0
-1.14031e-23
1.09854e-23
0
-1.05185e-23
1.03994e-23
1.03922e-23
-1.04263e-23
0
0
0
0
0
2.994e-24
-3.09057e-24
0
0
0
0
-5.84395e-24
5.69376e-24
0
0
1.07554e-23
2.13005e-26
-1.05208e-23
0
-1.05558e-23
1.06423e-23
-5.42288e-24
5.54891e-24
0
0
0
0
0
-8.00075e-24
1.34246e-23
-5.12483e-24
0
0
0
0
-9.64997e-24
1.51259e-23
0
-7.07185e-24
5.66189e-24
5.56621e-24
-7.19665e-24
0
0
0
0
1.35613e-23
-2.1096e-23
-2.77584e-27
1.40776e-23
-1.79377e-23
1.0372e-23
0
0
0
0
6.50147e-24
-1.22952e-23
1.76358e-23
-1.13408e-23
0
1.08769e-23
-1.07615e-23
-1.07622e-23
-1.73468e-26
1.09334e-23
-1.11443e-23
1.70766e-23
9.09087e-27
-6.01549e-24
-3.10945e-24
3.2095e-24
0
0
0
0
-6.06336e-24
5.90434e-24
1.15604e-23
-2.26264e-23
1.11082e-23
0
-1.08926e-23
-2.17087e-26
1.08676e-23
1.09894e-23
-1.1148e-23
0
5.90525e-24
-6.14497e-24
0
0
0
0
0
0
-6.15421e-24
7.51297e-24
0
0
0
0
0
0
0
-5.82424e-24
7.49567e-24
0
0
0
0
0
0
0
0
0
0
0
0
0
0
0
0
0
-1.17017e-23
1.13947e-23
0
1.11321e-23
-1.11051e-23
0
0
0
-5.90188e-24
1.2113e-23
-6.23356e-24
-3.22237e-24
4.99148e-24
-1.66861e-24
0
-6.60286e-24
1.28692e-23
1.15466e-26
-6.10952e-24
0
0
0
0
1.12311e-23
-1.11646e-23
0
0
0
0
0
0
0
0
0
0
0
0
6.25073e-24
-7.61846e-24
0
0
9.9017e-24
-1.56563e-23
1.17395e-23
-1.5293e-23
0
-6.07978e-24
7.78865e-24
0
1.92377e-23
-2.67259e-23
9.4692e-24
0
0
0
0
0
1.0839e-23
-9.5922e-24
0
0
0
0
0
-1.2444e-23
1.20174e-23
0
-1.15632e-23
1.14565e-23
0
-1.15519e-23
-1.93498e-26
2.38241e-23
-1.82823e-23
-9.959e-27
6.44637e-24
0
0
0
-3.49354e-24
-3.41948e-24
6.64495e-24
6.48583e-24
-6.30896e-24
1.23375e-23
2.41004e-26
2.41176e-26
-1.16488e-23
1.15567e-23
2.36102e-26
-1.1492e-23
0
-5.88522e-24
1.20211e-23
-6.19009e-24
0
-6.77772e-24
7.1951e-24
0
0
0
5.39894e-24
-6.33128e-24
0
0
0
0
0
0
0
-9.45082e-35
0
0
0
1.96784e-23
-2.7236e-23
9.63534e-24
0
0
0
7.46027e-24
-1.9049e-23
1.10421e-23
9.79392e-24
-8.81896e-24
0
0
7.01897e-24
-6.65002e-24
-1.27654e-23
-1.84685e-26
1.20497e-23
0
-1.18076e-23
-2.00747e-26
1.18814e-23
0
-1.22954e-23
1.25679e-23
-6.46791e-24
6.65366e-24
0
0
0
0
-7.04443e-24
-1.24464e-26
-1.23805e-26
6.50238e-24
0
0
-1.21844e-23
1.19727e-23
0
0
0
0
6.02428e-24
1.14144e-26
-6.32462e-24
6.58391e-24
1.06242e-26
-1.46685e-23
7.88734e-24
0
4.80422e-24
-5.46619e-24
0
7.79208e-24
-9.93732e-24
0
1.00603e-23
-1.60286e-23
0
8.18325e-24
-6.76797e-24
0
-1.67026e-23
2.73477e-23
1.0043e-23
-1.38475e-23
1.95723e-23
-1.45585e-23
0
0
-7.57906e-24
6.4536e-24
1.12441e-23
-1.9945e-23
-7.76122e-27
8.23018e-24
0
-7.17599e-24
6.80437e-24
-1.30731e-23
1.26442e-23
0
1.22042e-23
-1.21076e-23
0
0
1.24142e-23
-1.26365e-23
0
0
0
0
0
1.83689e-24
1.8601e-24
-3.62122e-24
0
-6.88426e-24
6.68942e-24
-1.3066e-23
-2.60039e-26
-2.60849e-26
1.22832e-23
0
1.20913e-23
-1.20598e-23
0
6.15547e-24
1.19339e-26
-6.45036e-24
0
0
7.46289e-24
-8.0104e-24
-8.75485e-24
1.45897e-23
-5.52898e-24
6.47409e-24
-1.57059e-23
-5.58078e-27
1.36058e-23
0
0
0
-8.43483e-24
7.038e-24
0
0
-1.40205e-23
1.02267e-23
0
0
0
1.14698e-23
-9.24559e-24
0
-1.31103e-23
1.14177e-23
0
9.16139e-24
-8.38609e-24
0
-7.32517e-24
-9.58659e-27
6.67354e-24
-1.29584e-23
1.26554e-23
0
1.24374e-23
2.22603e-26
-2.51126e-23
1.27302e-23
-1.30088e-23
1.99704e-23
-6.84023e-24
0
-3.64465e-24
3.75931e-24
0
-3.81793e-24
3.72303e-24
7.26883e-24
-1.41337e-23
6.86969e-24
0
-1.30925e-23
-2.71212e-26
1.25798e-23
0
-1.23644e-23
1.23216e-23
1.24098e-23
-1.25322e-23
0
-6.57979e-24
-1.19054e-26
7.13802e-24
0
8.13339e-24
-8.85542e-24
4.92214e-24
-5.58348e-24
0
0
0
0
0
0
0
0
0
0
0
-1.43446e-23
1.03937e-23
0
0
0
-1.16018e-23
-3.6501e-27
7.78224e-24
0
-1.1592e-23
-8.23599e-27
-8.57404e-27
8.53215e-24
0
7.46604e-24
-7.09061e-24
-1.36461e-23
-2.16177e-26
-2.2236e-26
2.55692e-23
-1.27105e-23
0
0
0
0
0
0
-7.24985e-24
7.47065e-24
0
-1.93786e-24
1.95561e-24
-7.65601e-24
7.44481e-24
-7.25539e-24
-7.07026e-24
1.37124e-23
-1.34057e-23
-2.82012e-26
1.28616e-23
-1.27223e-23
-2.79463e-26
2.51636e-23
2.7172e-26
-1.27616e-23
0
0
-6.9309e-24
7.24184e-24
0
0
0
0
-5.63546e-24
1.31364e-23
-7.93916e-24
0
6.83439e-24
3.31347e-27
-8.14687e-24
-1.28659e-23
-8.89998e-24
7.56474e-24
0
0
-1.46454e-23
1.05419e-23
0
0
0
-1.17165e-23
9.45464e-24
-7.87378e-24
-6.72964e-24
1.1736e-23
-1.04497e-23
9.4439e-24
-8.67752e-24
-9.78453e-27
7.58815e-24
0
0
0
1.32309e-23
-1.30477e-23
0
1.30564e-23
-1.31589e-23
0
1.36718e-23
-6.9839e-24
-1.44048e-23
-1.26775e-26
1.14911e-23
-3.95369e-24
0
0
0
7.64027e-24
-7.41521e-24
0
1.40547e-23
-1.36745e-23
1.34018e-23
-1.31279e-23
0
-1.28646e-23
1.27982e-23
6.43505e-24
-6.48694e-24
6.61628e-24
1.3346e-26
-7.01473e-24
7.34819e-24
-7.75758e-24
8.32298e-24
-1.80899e-23
1.00103e-23
-5.67324e-24
6.59816e-24
0
0
0
1.01158e-23
-8.15398e-24
-2.6012e-23
1.82222e-23
0
0
0
0
0
0
2.04305e-23
-1.51787e-23
0
0
0
0
1.18808e-23
-1.05723e-23
0
-8.80302e-24
8.18508e-24
0
0
0
0
0
0
0
0
0
0
0
0
0
0
0
0
-2.03012e-24
2.04928e-24
0
0
0
0
0
-1.3985e-23
2.73043e-23
-1.33777e-23
0
0
1.30414e-23
-6.50764e-24
-6.58416e-24
0
-6.87881e-24
7.101e-24
-7.43182e-24
7.83729e-24
0
0
0
0
6.62732e-24
-7.97718e-24
0
0
0
0
0
0
0
0
-1.91522e-23
1.51702e-23
0
0
2.05605e-23
-1.52745e-23
-1.18928e-23
-4.12468e-27
8.01231e-24
0
0
0
0
0
0
-7.83552e-24
-1.17157e-26
7.18242e-24
1.39911e-23
-1.37e-23
1.35789e-23
-1.35116e-23
0
1.37432e-23
-1.39453e-23
0
-7.32277e-24
-1.35504e-26
7.75328e-24
0
-2.06868e-24
2.06829e-24
0
0
0
7.75114e-24
7.5431e-24
-1.46016e-23
0
0
0
0
1.32975e-23
-1.32063e-23
-6.63043e-24
6.67197e-24
-6.7944e-24
-1.46314e-26
7.17676e-24
0
0
0
9.18171e-24
-1.01268e-23
5.72288e-24
6.74099e-27
-7.9772e-24
1.00711e-23
-1.35642e-23
0
-8.11696e-24
-1.25351e-27
9.48494e-24
8.30757e-24
-7.93519e-24
2.93418e-23
9.30434e-28
-1.0869e-23
-1.47046e-23
-1.03301e-23
1.53464e-23
0
-9.67138e-24
8.0676e-24
1.3829e-23
-1.20997e-23
0
0
0
0
0
7.57566e-24
-7.28889e-24
-1.42093e-23
1.39222e-23
1.38088e-23
-1.37478e-23
1.38423e-23
-1.39704e-23
0
0
0
0
0
-4.08647e-24
4.20962e-24
0
4.27392e-24
-4.1677e-24
8.13004e-24
1.57219e-26
7.68224e-24
-1.48615e-23
0
-1.41451e-23
1.38235e-23
0
1.34865e-23
-1.33826e-23
-6.71405e-24
6.75007e-24
-6.8687e-24
7.01372e-24
0
-7.56573e-24
7.96111e-24
0
0
0
5.73455e-24
-6.6354e-24
0
-1.00347e-23
1.3485e-23
9.94772e-24
-1.61351e-23
0
-9.64589e-24
8.53813e-24
0
0
0
0
-1.47558e-23
1.03556e-23
1.53973e-23
-1.19939e-23
0
0
0
1.21989e-23
-1.08856e-23
0
9.11443e-24
-1.7002e-23
-1.23746e-26
7.6587e-24
0
0
0
0
0
1.40712e-23
-1.42073e-23
0
-1.48128e-23
7.57188e-24
7.80829e-24
-8.06452e-24
1.24637e-23
-6.4297e-24
4.29298e-24
2.1788e-24
-4.24105e-24
0
8.03307e-24
-7.77804e-24
0
0
1.43548e-23
-2.80695e-23
-3.46883e-26
1.36215e-23
0
0
0
0
7.0886e-24
-1.46078e-23
7.60041e-24
8.02017e-24
-8.53826e-24
-9.2567e-24
1.52793e-23
-5.73016e-24
0
0
0
0
-9.8547e-24
8.00077e-24
1.32569e-23
9.78735e-24
-8.7581e-24
0
2.02774e-23
9.86766e-28
1.09855e-23
-1.47777e-23
0
-1.5419e-23
1.20186e-23
0
-8.14761e-24
6.98838e-24
0
0
0
0
-8.58878e-24
8.10529e-24
0
-7.48748e-24
2.18716e-23
-1.43123e-23
0
0
0
1.44565e-23
3.16521e-26
-1.50199e-23
0
-7.95131e-24
1.63768e-23
-8.43758e-24
0
2.18208e-24
-2.20422e-24
0
0
8.15695e-24
-7.89416e-24
0
-1.49215e-23
1.45074e-23
0
-1.39784e-23
2.75737e-23
-1.36752e-23
0
6.8932e-24
-1.39554e-23
1.42575e-23
-7.33886e-24
0
0
0
9.27298e-24
-5.08496e-24
-5.72394e-24
0
0
0
-6.6349e-24
9.7396e-24
-7.92397e-24
2.64844e-23
-2.97252e-23
8.96612e-24
0
0
0
0
0
0
0
1.20281e-23
-9.75168e-24
-8.16719e-24
7.01235e-24
0
0
0
0
0
0
7.83189e-24
-7.54992e-24
0
0
0
0
0
0
0
0
0
0
0
0
-2.21035e-24
-4.92136e-27
2.2347e-24
0
0
0
0
0
0
0
0
1.41172e-23
-1.38939e-23
-1.38264e-23
1.377e-23
0
-7.02841e-24
7.1566e-24
0
-7.67995e-24
8.05516e-24
0
0
0
0
0
7.86234e-24
-1.47389e-23
-4.76288e-27
9.61222e-24
0
1.3196e-23
-2.00162e-23
0
0
0
0
2.20148e-23
-1.47368e-23
-1.03347e-23
7.68747e-24
0
-9.7525e-24
8.16757e-24
0
1.23613e-23
-2.21358e-23
1.00707e-23
0
-8.71433e-24
1.64852e-23
-7.87951e-24
0
0
0
1.45396e-23
-1.45025e-23
-1.46365e-23
1.47937e-23
0
0
7.93714e-24
-8.15275e-24
0
0
0
0
0
-8.86014e-24
1.72248e-23
-8.34713e-24
0
0
0
-1.48488e-23
1.44663e-23
1.42321e-23
-1.39952e-23
0
0
0
7.05855e-24
-7.18058e-24
-7.40622e-24
7.67517e-24
0
0
0
0
0
-6.54995e-24
7.79187e-24
0
0
0
0
0
0
0
-8.7522e-24
1.05211e-23
0
0
0
0
0
0
0
0
0
0
0
0
9.35026e-24
-8.7417e-24
0
0
0
0
0
1.4666e-23
3.65991e-26
-1.47408e-23
0
-1.52629e-23
1.55861e-23
0
0
0
-4.38509e-24
4.50823e-24
-2.25905e-24
6.86065e-24
-1.34148e-23
8.68926e-24
-8.44717e-24
8.16365e-24
1.58543e-23
-1.53424e-23
0
1.46065e-23
-2.86012e-23
-4.11426e-26
1.39437e-23
6.97201e-24
-6.97832e-24
0
0
0
7.69203e-24
-1.61194e-23
8.55064e-24
-9.23052e-24
1.0097e-23
-5.65862e-24
6.4909e-24
0
4.80878e-24
5.29699e-27
5.68403e-27
-1.51601e-23
0
0
0
0
0
0
0
1.45722e-23
-1.02137e-23
0
1.19102e-23
-9.68637e-24
0
0
1.23659e-23
-1.10877e-23
0
0
0
0
-7.97854e-24
1.54266e-23
-7.52509e-24
-1.48643e-23
-3.7806e-26
1.4739e-23
0
1.50987e-23
-1.53516e-23
0
0
-8.32881e-24
8.56223e-24
-4.42096e-24
2.26624e-24
2.27026e-24
0
0
8.77733e-24
1.94218e-26
-1.64662e-23
-8.00176e-24
1.54379e-23
1.50473e-23
-1.4637e-23
1.43827e-23
4.29704e-26
-1.39815e-23
0
-7.00762e-24
-2.06637e-26
7.18863e-24
7.40383e-24
-7.65717e-24
0
-8.53455e-24
9.16476e-24
0
0
-6.43847e-24
-9.79667e-27
4.73261e-24
1.25597e-23
6.01605e-27
-1.48686e-23
0
-1.01659e-23
9.64746e-24
8.94921e-24
-1.06499e-23
-1.60132e-23
1.08484e-23
0
1.01216e-23
-7.54345e-24
0
-9.63029e-24
8.09281e-24
0
0
1.10803e-23
-1.0104e-23
0
0
0
0
0
0
0
0
0
1.49747e-23
-1.5147e-23
0
7.9285e-24
-8.12399e-24
0
-8.63449e-24
8.8734e-24
0
2.28752e-24
-2.31354e-24
0
8.82779e-24
-8.53976e-24
-8.28589e-24
7.99876e-24
0
0
-1.47222e-23
1.43701e-23
0
0
0
-7.00289e-24
1.41174e-23
-1.43644e-23
1.47416e-23
-1.52726e-23
1.59918e-23
-8.46469e-24
-4.55965e-24
4.97406e-24
0
0
0
0
0
-8.94157e-24
1.4548e-23
-1.26777e-23
2.03332e-23
0
0
2.13396e-23
-1.59384e-23
0
0
-1.00033e-23
2.23893e-23
-2.34061e-23
9.54263e-24
-8.03912e-24
6.94085e-24
0
0
0
0
0
0
-7.99906e-24
7.73298e-24
7.58118e-24
-2.24141e-23
1.48297e-23
0
0
0
0
0
0
-8.41542e-24
8.64582e-24
0
2.29594e-24
-2.28743e-24
0
0
0
0
-8.3099e-24
8.01763e-24
0
1.5121e-23
-1.46862e-23
-1.4415e-23
1.41279e-23
0
6.97247e-24
-6.96015e-24
7.04435e-24
2.23089e-26
-7.3214e-24
0
0
8.41745e-24
-9.01669e-24
0
0
6.28123e-24
1.08104e-26
-9.16312e-24
0
0
0
0
-1.01404e-23
9.87211e-24
-9.04433e-24
1.0655e-23
0
0
0
9.85831e-24
-7.36011e-24
0
0
0
0
-1.21782e-23
1.09526e-23
-1.00335e-23
9.29356e-24
-8.74633e-24
8.29385e-24
0
0
0
-1.49499e-23
-4.42544e-26
-4.52664e-26
-4.58794e-26
3.04748e-23
4.58614e-26
-7.92658e-24
-8.16666e-24
8.42678e-24
-8.65419e-24
-4.4656e-24
2.28448e-24
2.28705e-24
4.65415e-24
-4.54361e-24
0
0
8.31318e-24
-2.40948e-23
3.10845e-23
-1.50572e-23
1.4707e-23
4.86682e-26
-1.40829e-23
0
0
0
0
0
7.28904e-24
2.25506e-26
-1.57343e-23
1.66432e-23
-1.33829e-23
9.73269e-24
1.07981e-26
-6.17345e-24
0
0
0
8.50798e-24
-1.38188e-23
0
0
-7.23838e-35
0
0
-1.564e-23
-1.04271e-23
1.37983e-23
9.68498e-24
-2.17193e-23
2.27622e-23
-9.30465e-24
0
6.80902e-24
-6.02048e-24
0
-9.95271e-24
9.22657e-24
8.69133e-24
-8.24715e-24
0
0
-7.54648e-24
7.42908e-24
0
-1.48706e-23
2.99666e-23
-1.51863e-23
1.55438e-23
-7.91282e-24
-8.15385e-24
0
-8.66104e-24
1.33433e-23
-4.56837e-24
0
4.64266e-24
4.55725e-24
-1.76718e-23
1.71285e-23
-8.27094e-24
1.60344e-23
4.78622e-26
-1.49987e-23
0
0
0
0
0
0
6.94482e-24
-7.0254e-24
0
0
-7.78753e-24
-2.29267e-26
8.79275e-24
0
0
0
0
4.39778e-24
6.86483e-27
-8.26013e-24
0
1.19472e-23
-2.99912e-23
9.99681e-24
0
-2.10271e-23
1.54062e-23
0
-1.35042e-23
9.47933e-24
0
0
0
0
0
0
0
0
9.14925e-24
-8.59249e-24
0
0
0
0
0
0
-1.47916e-23
1.48811e-23
-1.51627e-23
2.3157e-23
-1.58243e-23
-2.5329e-26
-2.51796e-26
8.59239e-24
4.43192e-24
-6.81807e-24
2.26547e-24
0
0
0
0
8.2496e-24
-1.59191e-23
7.6853e-24
0
0
-1.41978e-23
1.38807e-23
-6.8756e-24
6.79989e-24
-6.82292e-24
1.37099e-23
-6.94126e-24
0
0
0
-8.1046e-24
4.31285e-24
9.42209e-24
1.1923e-26
-5.93959e-24
0
0
0
8.0116e-24
-1.29762e-23
0
9.87945e-24
-1.00154e-23
0
0
0
0
-1.31606e-23
1.84904e-23
-6.92634e-24
0
0
7.58608e-24
-6.58318e-24
1.16958e-23
-1.0553e-23
9.69959e-24
-9.00756e-24
0
0
0
-7.57112e-24
7.39734e-24
0
1.46142e-23
-1.46086e-23
0
1.50379e-23
-1.52924e-23
7.86124e-24
-8.04739e-24
0
0
4.39222e-24
-6.7529e-24
2.24299e-24
-4.57439e-24
4.46948e-24
-8.72833e-24
8.4351e-24
8.1783e-24
2.52095e-26
-7.61204e-24
-1.48004e-23
1.4332e-23
0
0
0
0
0
6.77141e-24
-6.83721e-24
7.01693e-24
2.61237e-26
-7.52071e-24
-7.95893e-24
8.48358e-24
0
5.12058e-24
-5.80148e-24
0
0
5.43021e-24
8.39449e-27
-1.25124e-23
0
0
7.27691e-35
-8.8327e-24
3.05912e-23
-1.47531e-23
0
-1.27659e-23
1.79489e-23
6.7375e-24
-1.0629e-23
0
0
0
0
0
0
0
0
0
0
7.46171e-24
-7.29292e-24
0
0
-1.44769e-23
1.45651e-23
0
7.58125e-24
-7.73772e-24
-7.97679e-24
1.6377e-23
-8.40756e-24
0
0
0
0
8.85288e-24
-8.59532e-24
0
0
0
0
0
1.4186e-23
-2.0701e-23
6.75411e-24
0
0
0
-6.65373e-24
6.71216e-24
0
7.09874e-24
-7.36669e-24
0
0
4.51444e-24
-4.98152e-24
-5.66209e-24
-1.38612e-26
8.07486e-24
0
7.4507e-24
-6.00609e-24
-1.09196e-23
0
0
-8.67489e-24
9.96346e-24
0
0
0
0
0
0
0
0
0
0
0
0
0
0
0
0
0
0
0
0
7.11445e-24
-7.15738e-24
0
0
-7.63838e-24
1.56576e-23
-1.60993e-23
8.26123e-24
0
0
0
0
0
0
0
7.94368e-24
-7.64254e-24
0
0
0
-6.79218e-24
6.62451e-24
0
0
0
0
-6.59439e-24
6.70269e-24
0
0
0
0
0
0
0
0
3.90766e-24
-5.0455e-24
0
0
-1.05181e-23
1.86341e-23
0
-8.46664e-24
9.67433e-24
1.38204e-23
-8.98003e-24
0
-8.31972e-24
6.2581e-24
0
8.17578e-24
6.49648e-27
-6.0617e-24
1.0816e-23
-9.79411e-24
0
-8.43405e-24
7.9457e-24
0
0
0
0
0
0
-6.95563e-24
6.99678e-24
0
0
-7.47241e-24
-3.30836e-26
1.57423e-23
-8.07428e-24
0
0
0
-4.33631e-24
4.24166e-24
0
8.04381e-24
2.77688e-26
-7.47654e-24
-7.24845e-24
-2.99648e-26
6.77809e-24
6.63623e-24
3.1852e-26
-6.36786e-24
-6.34005e-24
6.28999e-24
0
-6.4238e-24
6.52329e-24
0
0
0
0
0
4.70084e-24
-5.29728e-24
0
3.76103e-24
8.85567e-27
-6.81792e-24
0
0
0
0
0
0
0
0
0
-7.92867e-24
5.97328e-24
0
0
0
0
0
0
0
0
0
0
0
0
0
0
0
0
0
0
0
0
0
0
-7.87861e-24
4.00772e-24
4.12833e-24
2.06722e-24
-2.09817e-24
0
0
-7.82786e-24
-2.88045e-26
-2.93281e-26
1.40728e-23
-6.79056e-24
0
0
0
-6.21457e-24
-3.35255e-26
1.2234e-23
-1.22804e-23
6.19437e-24
0
6.53442e-24
-1.35525e-23
1.42493e-23
-3.77212e-24
-4.09828e-24
0
5.11695e-24
-5.93754e-24
0
-4.6402e-24
1.30114e-23
-5.20497e-24
-9.6032e-24
-8.73892e-24
9.54247e-24
0
0
1.25647e-23
8.08631e-24
-1.06112e-23
0
0
0
0
0
0
0
0
0
0
0
0
0
0
0
0
6.48422e-24
3.66374e-26
3.76382e-26
3.82255e-26
-1.36485e-23
1.39857e-23
-1.43615e-23
7.36079e-24
0
0
1.9995e-24
-1.98279e-24
0
7.99743e-24
-7.7706e-24
0
7.31465e-24
-1.40895e-23
1.3601e-23
-6.56012e-24
0
0
0
0
5.93769e-24
-1.17973e-23
5.90157e-24
0
0
0
0
0
0
-3.95167e-24
4.33592e-24
4.90569e-24
-5.68285e-24
0
0
0
0
0
4.1806e-24
-4.65384e-24
0
0
1.18021e-23
-7.55635e-24
0
0
1.05967e-23
-1.68757e-23
6.99063e-24
0
-5.24861e-24
4.69132e-24
-8.56311e-24
-2.00474e-26
7.39632e-24
0
0
0
0
-6.25309e-24
1.23664e-23
-6.15669e-24
0
-6.30169e-24
6.36805e-24
0
-6.7089e-24
6.84774e-24
0
-7.2717e-24
7.41943e-24
0
0
3.89323e-24
-1.14769e-23
1.49282e-23
-7.2273e-24
0
-6.77331e-24
6.50644e-24
0
0
0
0
0
0
0
0
0
0
0
0
0
0
0
0
0
0
0
0
0
0
0
0
0
0
-1.57253e-23
1.09409e-23
0
0
0
9.8005e-24
5.55836e-27
-6.49117e-24
0
0
0
8.00966e-24
2.07214e-26
2.29471e-26
-6.57931e-24
0
6.13172e-24
-5.95605e-24
0
0
0
5.88746e-24
4.32358e-26
-1.20825e-23
-4.44588e-26
1.26569e-23
-1.29997e-23
6.65806e-24
0
0
0
0
0
0
-7.10398e-24
1.37609e-23
-1.33069e-23
6.40581e-24
0
0
-5.82934e-24
5.6387e-24
-5.5525e-24
-3.82176e-26
5.36598e-24
0
5.39858e-24
-5.41787e-24
5.5583e-24
3.66632e-26
-1.18267e-23
6.19085e-24
-3.31028e-24
-1.75776e-26
7.83971e-24
1.79323e-26
-5.10189e-24
-3.08751e-24
-1.0732e-26
5.46551e-24
-4.34052e-24
1.59497e-23
-1.87004e-23
4.33456e-24
0
7.21862e-24
-1.49678e-23
1.89838e-23
-8.28659e-24
0
0
7.13348e-24
-5.93163e-24
0
4.48942e-24
-8.06013e-24
-3.69768e-24
6.82122e-24
6.42953e-24
2.64459e-26
2.91904e-26
-5.65569e-24
5.56175e-24
-5.4453e-24
0
0
0
-5.55789e-24
-4.74189e-26
5.7369e-24
0
-6.09413e-24
1.24802e-23
-6.38705e-24
0
0
0
0
6.81868e-24
-6.63185e-24
-6.47706e-24
-3.33874e-26
6.01719e-24
0
0
0
5.3361e-24
-5.18104e-24
-5.13501e-24
5.04118e-24
0
0
0
-5.22547e-24
5.33229e-24
0
-2.92508e-24
3.09044e-24
0
0
0
-2.39623e-24
5.75934e-24
-3.66245e-24
0
4.0172e-24
-7.36594e-24
3.49023e-24
-4.12793e-24
0
6.48646e-24
-4.4526e-24
0
0
5.22225e-24
-3.97019e-24
6.36896e-24
-5.30701e-24
4.57255e-24
7.81197e-27
-3.62385e-24
6.65437e-24
-6.16214e-24
0
5.54139e-24
-5.29873e-24
0
0
5.00098e-24
-4.93089e-24
0
0
0
0
-5.3084e-24
5.39556e-24
0
0
0
0
-1.55694e-24
3.09461e-24
-1.5821e-24
0
0
-5.9943e-24
5.76829e-24
0
0
0
0
0
-4.84305e-24
-4.16594e-26
-4.19801e-26
9.35457e-24
-4.67126e-24
4.76343e-24
-4.81239e-24
0
0
2.71656e-24
-2.8672e-24
0
3.41835e-24
-7.65687e-24
4.41611e-24
0
0
4.67813e-24
-7.33976e-24
0
3.21808e-24
-3.88662e-24
0
0
-7.71848e-24
4.84682e-24
0
0
0
0
0
0
0
0
0
0
0
0
0
4.58182e-24
-8.95019e-24
4.40197e-24
0
0
0
0
0
-4.76015e-24
-5.5912e-26
4.9763e-24
-5.17958e-24
5.27151e-24
0
0
0
0
0
0
0
0
0
4.92741e-24
-4.73043e-24
0
0
0
-4.34735e-24
4.26133e-24
0
4.30666e-24
-4.31118e-24
0
0
4.73778e-24
-2.44476e-24
2.04428e-26
-2.82804e-24
0
0
2.02527e-24
-2.41923e-24
-3.08133e-24
-1.39687e-26
3.30467e-24
6.06188e-24
0
-5.25114e-35
2.16201e-24
-2.36586e-24
-6.4091e-24
4.00518e-24
0
0
0
0
0
0
0
0
0
0
-4.3353e-24
4.11505e-24
4.00407e-24
3.7572e-26
4.1469e-26
-7.5666e-24
-4.91085e-26
3.77027e-24
0
0
4.02629e-24
-4.07319e-24
0
-4.38571e-24
4.46146e-24
0
0
0
-1.23121e-24
-1.28152e-24
7.52537e-24
4.03758e-26
-9.59452e-24
4.63489e-24
-4.5214e-24
-3.86697e-26
4.19772e-24
0
0
-3.93552e-24
3.83259e-24
0
0
0
0
0
0
0
2.23162e-24
-2.35054e-24
0
0
0
0
2.17661e-24
1.29723e-26
-3.76423e-24
0
0
0
0
1.69882e-24
-1.84833e-24
4.97238e-24
9.22785e-28
-6.06593e-24
5.76912e-24
2.39442e-27
-1.78204e-24
0
0
2.3129e-24
9.44986e-27
-1.9257e-24
3.62688e-24
-3.41226e-24
0
0
3.13111e-24
-3.04715e-24
-3.07647e-24
-5.24402e-26
3.05895e-24
0
0
-3.32014e-24
3.35592e-24
0
0
0
0
-2.01134e-24
2.03883e-24
0
0
0
4.20645e-24
-4.06892e-24
3.99197e-24
-7.70078e-24
3.70986e-24
-3.63867e-24
3.49748e-24
-3.45926e-24
6.74545e-24
-3.3047e-24
0
3.32632e-24
-3.29919e-24
3.39259e-24
4.70923e-26
-3.52428e-24
-1.85677e-24
1.92871e-24
-2.07574e-24
2.21724e-24
0
0
0
1.9031e-24
-2.38961e-24
1.64405e-24
-2.54342e-24
0
0
0
0
0
-3.40231e-24
2.10573e-24
0
0
0
0
0
0
0
-1.46139e-24
1.34345e-24
0
0
0
0
0
0
0
0
0
0
0
2.52009e-24
-5.15977e-24
2.64845e-24
-2.82845e-24
2.87153e-24
0
0
0
8.24559e-25
-8.42074e-25
-3.42206e-24
3.33692e-24
0
-3.22667e-24
3.09652e-24
0
0
2.89368e-24
-5.62409e-24
5.53552e-24
-2.71498e-24
0
0
0
0
0
0
0
0
0
-1.89132e-24
2.05447e-24
0
0
0
0
0
0
0
1.91262e-24
-2.52034e-24
-5.93163e-25
6.37835e-25
0
0
-1.36479e-24
9.76627e-25
0
0
1.04126e-24
-9.04391e-25
8.19652e-25
-7.43105e-25
0
0
0
0
0
0
0
0
0
0
0
0
0
0
1.80357e-24
-1.82814e-24
0
2.10564e-24
-1.0294e-24
-1.69115e-24
5.6828e-25
0
0
-2.45549e-24