/*--------------------------------*- C++ -*----------------------------------*\
| =========                 |                                                 |
| \\      /  F ield         | OpenFOAM: The Open Source CFD Toolbox           |
|  \\    /   O peration     | Version:  2412                                  |
|   \\  /    A nd           | Website:  www.openfoam.com                      |
|    \\/     M anipulation  |                                                 |
\*---------------------------------------------------------------------------*/
FoamFile
{
    version     2.0;
    format      ascii;
    arch        "LSB;label=32;scalar=64";
    class       volVectorField;
    location    "2000";
    object      wallShearStress;
}
// * * * * * * * * * * * * * * * * * * * * * * * * * * * * * * * * * * * * * //

dimensions      [0 2 -2 0 0 0 0];

internalField   uniform (0 0 0);

boundaryField
{
    lowerWall
    {
        type            calculated;
        value           nonuniform List<vector> 
496
(
(-0.000595625 -8.68518e-09 0)
(-0.000603616 -5.62203e-08 0)
(-0.000611205 -4.06579e-08 -6.39752e-27)
(-0.000618564 -4.70131e-08 8.52614e-27)
(-0.000625602 -4.79462e-08 1.10979e-26)
(-0.000634018 -5.01098e-08 1.35208e-26)
(-0.000641054 -5.16062e-08 0)
(-0.000649762 -5.43553e-08 0)
(-0.000657291 -5.52559e-08 6.55638e-45)
(-0.000665947 -5.8148e-08 4.74991e-26)
(-0.000673978 -5.92607e-08 -7.67901e-37)
(-0.000682601 -6.18439e-08 0)
(-0.000690981 -6.34185e-08 -6.35064e-26)
(-0.000699655 -6.58032e-08 0)
(-0.000708266 -6.76391e-08 7.4466e-26)
(-0.000717003 -6.97799e-08 8.00153e-26)
(-0.000725715 -7.15756e-08 8.5604e-26)
(-0.000734441 -7.34349e-08 0)
(-0.000743106 -7.48973e-08 1.00784e-47)
(-0.000751656 -7.67445e-08 0)
(-0.000760228 -8.27313e-08 1.57378e-36)
(-0.000769479 -8.90247e-08 -1.13796e-25)
(-0.000778789 -9.1605e-08 2.48921e-60)
(-0.000788018 -9.4057e-08 1.42646e-47)
(-0.000797216 -9.67216e-08 1.90121e-36)
(-0.000806345 -9.93681e-08 1.3619e-25)
(-0.00081539 -1.01793e-07 -1.41667e-25)
(-0.00082428 -1.0414e-07 -3.11151e-61)
(-0.000833028 -1.06697e-07 -1.52365e-25)
(-0.000841617 -1.0925e-07 2.63798e-44)
(-0.000850016 -1.11802e-07 0)
(-0.000858208 -1.14291e-07 -1.67488e-25)
(-0.000866146 -1.16582e-07 -1.72192e-25)
(-0.000873792 -1.18709e-07 1.76686e-25)
(-0.000881105 -1.20708e-07 -1.80942e-25)
(-0.000888056 -1.22782e-07 3.35782e-44)
(-0.000894635 -1.24843e-07 0)
(-0.000900795 -1.26617e-07 0)
(-0.00090648 -1.27875e-07 -1.94951e-25)
(-0.000911611 -1.2889e-07 -1.3511e-45)
(-0.000916175 -1.29625e-07 -1.99625e-25)
(-0.000920091 -1.2992e-07 1.46419e-36)
(-0.000923321 -1.29881e-07 -2.02283e-25)
(-0.000925801 -1.29499e-07 2.02729e-25)
(-0.00092749 -1.28292e-07 -1.47348e-36)
(-0.000928247 -1.25472e-07 3.62227e-71)
(-0.000927898 -1.20172e-07 -2.57727e-47)
(-0.000926159 -1.23086e-07 0)
(-0.000923711 -1.35461e-07 -1.93485e-25)
(-0.000920701 -1.38787e-07 9.43945e-26)
(-0.000916522 -1.31943e-07 0)
(-0.000910974 -1.22383e-07 -8.79791e-26)
(-0.00090393 -1.10678e-07 8.38141e-26)
(-0.000895306 -9.6708e-08 7.8942e-26)
(-0.000884979 -8.00382e-08 1.06693e-36)
(-0.00087284 -6.0525e-08 0)
(-0.000858775 -3.80082e-08 0)
(-0.000842695 -1.20291e-08 5.12638e-26)
(-0.000824454 1.79525e-08 0)
(-0.000803977 5.17266e-08 2.30538e-37)
(-0.000780991 9.02577e-08 1.451e-37)
(-0.00075566 1.3359e-07 8.31007e-49)
(-0.000728455 1.8051e-07 9.05568e-72)
(-0.000699491 2.31145e-07 1.57403e-37)
(-0.000668863 2.85113e-07 3.87437e-26)
(-0.000636691 3.42192e-07 4.18523e-37)
(-0.00060311 4.01848e-07 -7.81059e-26)
(-0.000568263 4.63814e-07 2.41055e-44)
(-0.000532295 5.27647e-07 9.0697e-37)
(-0.000495356 5.92676e-07 -1.4884e-47)
(-0.000457615 6.58381e-07 -3.7129e-44)
(-0.000419226 7.24331e-07 -1.0434e-25)
(-0.000380342 7.90761e-07 0)
(-0.00034107 8.55541e-07 -9.98062e-37)
(-0.000301623 9.23873e-07 1.54888e-25)
(-0.000262189 9.98041e-07 -1.2606e-36)
(-0.000222871 1.07048e-06 0)
(-0.000183799 1.13877e-06 2.12632e-25)
(-0.000145117 1.2025e-06 -2.33571e-25)
(-0.000106928 1.26208e-06 0)
(-6.93088e-05 1.31799e-06 0)
(-3.22482e-05 1.37825e-06 0)
(4.45879e-06 1.46441e-06 -1.62797e-25)
(4.15338e-05 1.46736e-06 9.95682e-60)
(7.66934e-05 1.42464e-06 -1.82136e-47)
(0.000110052 1.3791e-06 0)
(0.000141637 1.33198e-06 2.20356e-47)
(0.000171516 1.28445e-06 0)
(0.000199759 1.23699e-06 1.01053e-36)
(0.000226436 1.18985e-06 -1.09266e-36)
(0.000251614 1.14319e-06 0)
(0.000275361 1.09714e-06 -1.74325e-25)
(0.00029774 1.05168e-06 -1.362e-36)
(0.00031881 1.00866e-06 -2.00623e-25)
(0.000338683 9.72484e-07 1.62884e-43)
(0.000357471 9.39105e-07 -1.66433e-36)
(0.000375108 9.023e-07 -1.77207e-36)
(0.000391654 8.66084e-07 1.88391e-36)
(0.00040716 8.30144e-07 -1.44891e-70)
(0.000421673 7.94368e-07 1.06013e-36)
(0.000435237 7.5878e-07 -1.12246e-36)
(0.000447897 7.23431e-07 -3.98273e-59)
(0.000459695 6.88136e-07 -1.72324e-25)
(0.000470669 6.52982e-07 -1.81821e-25)
(0.000480859 6.17933e-07 0)
(0.000490299 5.82787e-07 1.46815e-36)
(0.000499023 5.47493e-07 0)
(0.000507061 5.11777e-07 -2.23089e-25)
(0.000514439 4.75657e-07 2.3426e-25)
(0.000521186 4.3884e-07 8.94135e-37)
(0.00052732 4.00736e-07 -1.28835e-25)
(0.000532856 3.60883e-07 -3.98273e-59)
(0.000537806 3.1853e-07 0)
(0.000542168 2.72099e-07 2.57325e-43)
(0.000545933 2.19347e-07 1.54485e-25)
(0.000549057 1.55689e-07 -1.61389e-25)
(0.000551489 7.44522e-08 0)
(0.000553025 -4.91242e-08 1.98858e-47)
(0.000553501 -2.7416e-07 0)
(0.000551288 -7.16122e-07 0)
(0.000547482 -2.23485e-06 4.90682e-23)
(0.000545858 -5.04165e-06 2.40982e-26)
(0.000546163 -8.26025e-06 -1.99711e-22)
(0.000546687 -1.15485e-05 -4.02657e-22)
(0.000547221 -1.48684e-05 6.29713e-28)
(0.000547687 -1.82047e-05 8.18666e-22)
(0.000548022 -2.15466e-05 8.25921e-22)
(0.000548204 -2.48892e-05 8.32736e-22)
(0.000548223 -2.82286e-05 -1.70873e-25)
(0.000548077 -3.15611e-05 8.46431e-22)
(0.000547771 -3.48836e-05 -2.44129e-25)
(0.000547311 -3.81939e-05 2.10567e-25)
(0.000546708 -4.14898e-05 1.73362e-21)
(0.000545973 -4.47695e-05 1.74764e-21)
(0.00054512 -4.80323e-05 1.76136e-21)
(0.000544161 -5.12773e-05 3.5504e-21)
(0.000543109 -5.45035e-05 1.78852e-21)
(0.000541982 -5.77107e-05 -2.39911e-27)
(0.000540801 -6.08999e-05 4.42272e-25)
(0.000539588 -6.40724e-05 -2.24005e-25)
(0.000538369 -6.72305e-05 3.24582e-25)
(0.000537175 -7.03764e-05 3.58732e-43)
(0.000536048 -7.35138e-05 8.73011e-39)
(0.000535069 -7.66502e-05 -2.30641e-25)
(0.000534321 -7.97938e-05 3.79643e-21)
(0.000534061 -8.29628e-05 -3.82266e-21)
(0.000534436 -8.61312e-05 5.88758e-26)
(0.000537242 -8.93968e-05 -5.89401e-26)
(0.000541701 -9.17886e-05 1.20022e-25)
(0.000543486 -9.2527e-05 -3.87432e-21)
(0.000543156 -9.25823e-05 3.82618e-21)
(0.000542437 -9.24991e-05 -7.58561e-38)
(0.000541548 -9.23612e-05 3.73099e-21)
(0.00054058 -9.21964e-05 -3.68337e-21)
(0.000539625 -9.20255e-05 -4.42711e-25)
(0.000538727 -9.18587e-05 3.59186e-21)
(0.000537913 -9.17024e-05 -1.41059e-37)
(0.000537203 -9.15608e-05 -5.87747e-39)
(0.000536606 -9.14367e-05 -6.91439e-21)
(0.000536128 -9.13316e-05 -6.82838e-21)
(0.000535769 -9.12459e-05 8.20204e-25)
(0.000535523 -9.11794e-05 6.65721e-21)
(0.000535386 -9.11313e-05 1.31502e-20)
(0.000535346 -9.11001e-05 1.57997e-24)
(0.000535393 -9.10842e-05 -3.01335e-41)
(0.000535515 -9.10816e-05 5.87747e-39)
(0.0005357 -9.10901e-05 6.26316e-21)
(0.000535932 -9.11073e-05 -1.83671e-40)
(0.0005362 -9.11311e-05 6.11739e-21)
(0.00053649 -9.11591e-05 5.87747e-38)
(0.00053679 -9.11892e-05 -5.97838e-21)
(0.000537089 -9.12191e-05 1.44933e-24)
(0.000537376 -9.12471e-05 -1.42124e-24)
(0.000537642 -9.12714e-05 5.78338e-21)
(0.000537877 -9.12902e-05 5.7218e-21)
(0.000538074 -9.13022e-05 -1.13257e-20)
(0.000538226 -9.1306e-05 1.36164e-24)
(0.000538325 -9.13003e-05 -1.10942e-20)
(0.000538367 -9.12841e-05 7.34684e-40)
(0.000538344 -9.1256e-05 -1.08781e-20)
(0.00053825 -9.12151e-05 1.07734e-20)
(0.00053808 -9.11601e-05 2.60595e-24)
(0.000537828 -9.10899e-05 1.05761e-20)
(0.000537485 -9.10033e-05 5.87747e-39)
(0.000537046 -9.0899e-05 -1.27574e-24)
(0.000536502 -9.07756e-05 -1.44607e-26)
(0.000535846 -9.06316e-05 1.24029e-24)
(0.00053507 -9.04655e-05 2.02789e-20)
(0.000534163 -9.02755e-05 4.57639e-25)
(0.000533116 -9.006e-05 -9.98677e-21)
(0.000531919 -8.98169e-05 9.9151e-21)
(0.00053056 -8.95441e-05 1.96933e-20)
(0.000529025 -8.92393e-05 1.95617e-20)
(0.0005273 -8.88999e-05 3.88796e-20)
(0.00052537 -8.85231e-05 -1.17095e-24)
(0.000523218 -8.81057e-05 -8.36175e-25)
(0.000520823 -8.76442e-05 -1.17491e-24)
(0.000518163 -8.71346e-05 -8.34198e-25)
(0.000515212 -8.65723e-05 -1.89191e-20)
(0.00051194 -8.59519e-05 -1.15905e-24)
(0.000508309 -8.52671e-05 1.13583e-24)
(0.00050428 -8.45105e-05 1.86955e-20)
(0.000499804 -8.36739e-05 0)
(0.000494834 -8.27485e-05 6.46522e-38)
(0.000489319 -8.17252e-05 -1.85377e-20)
(0.000483215 -8.05955e-05 3.70044e-20)
(0.000476476 -7.93514e-05 -1.11675e-24)
(0.000469055 -7.79838e-05 1.76324e-37)
(0.000460889 -7.6482e-05 -3.6886e-20)
(0.000451896 -7.48316e-05 3.68853e-20)
(0.000441959 -7.30125e-05 -5.69275e-25)
(0.000430922 -7.09978e-05 -3.69399e-20)
(0.000418628 -6.8759e-05 -1.3042e-26)
(0.000404927 -6.62691e-05 5.59175e-25)
(0.000389669 -6.35006e-05 3.71861e-20)
(0.000372696 -6.04252e-05 3.7314e-20)
(0.000353797 -5.70066e-05 -1.41082e-25)
(0.000332602 -5.31822e-05 0)
(0.00030892 -4.89183e-05 -3.86844e-20)
(0.00028303 -4.42636e-05 1.57119e-25)
(0.000255176 -3.92601e-05 4.26227e-20)
(0.00022527 -3.38941e-05 3.3659e-25)
(0.000193133 -2.81355e-05 4.68896e-20)
(0.000158601 -2.19553e-05 1.17549e-38)
(0.000121533 -1.53283e-05 0)
(8.18181e-05 -8.23492e-06 2.35099e-38)
(3.92949e-05 -6.31796e-07 1.12891e-19)
(-4.81877e-06 7.35585e-06 -5.91955e-20)
(-4.45905e-05 1.46929e-05 2.93874e-39)
(-8.48597e-05 2.20693e-05 -3.33049e-20)
(-0.000125772 2.95668e-05 -5.87747e-39)
(-0.00016728 3.71809e-05 -1.88079e-36)
(-0.000209298 4.48955e-05 7.92109e-20)
(-0.000251792 5.27049e-05 -1.17549e-38)
(-0.000294825 6.06178e-05 -5.23749e-41)
(-0.000338384 6.86342e-05 1.44983e-24)
(-0.000382351 7.67341e-05 -1.49332e-24)
(-0.000426651 8.4905e-05 -1.14023e-36)
(-0.000471281 9.31461e-05 5.52821e-20)
(-0.000516052 0.000101407 -5.83539e-20)
(-0.000561197 0.000109738 -6.15585e-20)
(-0.000606742 0.000118164 4.70198e-38)
(-0.000652709 0.000126674 1.36858e-19)
(-0.000699157 0.00013528 7.21077e-20)
(-0.000745917 0.000143955 7.5953e-20)
(-0.000792864 0.000152679 -3.99859e-20)
(-0.000840209 0.00016148 4.2096e-20)
(-0.00088791 0.000170358 6.78751e-26)
(-0.000935719 0.000179274 4.66054e-20)
(-0.000983514 0.000188203 7.47062e-26)
(-0.00103148 0.000197173 -3.10724e-24)
(-0.00107942 0.000206158 -5.41739e-20)
(-0.00112701 0.000215105 -3.51879e-24)
(-0.00117418 0.000223993 5.98238e-20)
(-0.00122103 0.000232838 6.28389e-20)
(-0.00126713 0.00024158 6.59931e-20)
(-0.00131218 0.000250156 -2.32748e-36)
(-0.00135646 0.000258606 -7.40561e-37)
(-0.00139972 0.0002669 -7.63652e-20)
(-0.00144177 0.000275 -8.01433e-20)
(-0.00148297 0.000282952 -1.68184e-19)
(-0.00152333 0.000290784 -8.9739e-24)
(-0.00156234 0.000298415 4.62669e-20)
(-0.00160024 0.000305862 -2.35099e-38)
(-0.00163703 0.000313148 0)
(-0.00167207 0.000320172 -5.33083e-20)
(-0.00170545 0.000326918 3.45033e-24)
(-0.00173714 0.000333411 -1.17086e-19)
(-0.00176639 0.000339528 -6.13323e-20)
(-0.00179318 0.000345234 -1.28491e-19)
(-0.00181737 0.000350548 6.7289e-20)
(-0.00183837 0.000355345 4.35062e-24)
(-0.00185581 0.00035957 -4.45346e-24)
(-0.00186952 0.000363221 -5.21919e-36)
(-0.00187851 0.000366091 -8.08738e-20)
(-0.00188293 0.000368258 -8.46775e-20)
(-0.00188185 0.000369536 -2.73581e-24)
(-0.0018745 0.000369816 5.7369e-25)
(-0.00186147 0.000369206 1.59977e-36)
(-0.0018408 0.00036739 -3.13862e-24)
(-0.00181346 0.000364557 3.21314e-24)
(-0.00177759 0.000360391 5.57407e-20)
(-0.00173504 0.000355199 5.83725e-20)
(-0.00168655 0.000349129 -1.38885e-24)
(-0.00163923 0.000343266 -1.93314e-24)
(-0.0015996 0.000338696 2.29148e-36)
(-0.00156831 0.000335854 5.43319e-25)
(-0.00165709 0.000349996 7.37334e-20)
(-0.00193754 0.000388148 -7.49779e-20)
(-0.00226221 0.00042666 4.70198e-38)
(-0.0025647 0.000457598 1.56616e-19)
(-0.00288638 0.0004873 -7.99224e-20)
(-0.00321343 0.000513791 -2.48665e-24)
(-0.00354898 0.00053733 1.25476e-24)
(-0.00389117 0.000557588 4.22474e-20)
(-0.00423893 0.000574312 -4.29576e-20)
(-0.0045927 0.000587439 -1.32082e-24)
(-0.0049531 0.000596934 -4.42874e-20)
(-0.00532059 0.00060285 1.36025e-24)
(-0.00569208 0.000604837 3.84299e-36)
(-0.00606191 0.000602203 1.76324e-38)
(-0.00643092 0.000594999 -4.6521e-20)
(-0.0067987 0.000583246 1.44089e-24)
(-0.00716454 0.000566914 -4.74065e-20)
(-0.00752848 0.000546067 4.77806e-20)
(-0.00788941 0.000520692 -2.40547e-20)
(-0.00824665 0.00049081 -1.46937e-39)
(-0.00859923 0.000456448 -4.8616e-20)
(-0.00894638 0.000417673 2.43939e-20)
(-0.00928713 0.000374548 -2.44513e-20)
(-0.00962054 0.000327189 2.44768e-20)
(-0.00994125 0.000275734 7.46349e-25)
(-0.0102391 0.000220266 -7.45712e-25)
(-0.0105217 0.000160738 -2.24208e-44)
(-0.010795 9.86191e-05 1.84093e-25)
(-0.0108539 3.77697e-05 -1.50206e-21)
(-0.0105738 7.52252e-06 2.93e-24)
(-0.010264 5.02375e-06 -0)
(-0.0100786 3.4547e-06 2.66033e-24)
(-0.009924 2.56929e-06 -0)
(-0.00980502 1.95844e-06 2.41937e-24)
(-0.00970698 1.51741e-06 -0)
(-0.00962783 1.18471e-06 -0)
(-0.00956229 9.28842e-07 -4.20505e-24)
(-0.00950889 7.28224e-07 0)
(-0.00946481 5.70118e-07 0)
(-0.00942907 4.4445e-07 0)
(-0.00939986 3.44998e-07 -0)
(-0.00937646 2.65857e-07 -6.67385e-24)
(-0.00935764 2.03824e-07 -6.3732e-24)
(-0.00934281 1.55217e-07 0)
(-0.00933108 1.17319e-07 -5.8118e-24)
(-0.00932208 8.78958e-08 0)
(-0.00931511 6.59087e-08 5.29912e-24)
(-0.00930987 4.92994e-08 -0)
(-0.00930591 3.70429e-08 4.83044e-24)
(-0.00930301 2.80714e-08 -0)
(-0.00930087 2.16891e-08 -0)
(-0.00929934 1.72135e-08 -8.40236e-24)
(-0.00929822 1.42169e-08 0)
(-0.00929744 1.22428e-08 -7.65158e-24)
(-0.00929686 1.10176e-08 0)
(-0.00929646 1.04365e-08 0)
(-0.00929613 1.02218e-08 0)
(-0.0092959 1.02707e-08 1.26703e-23)
(-0.00929568 1.03915e-08 0)
(-0.00929551 1.03471e-08 1.20434e-23)
(-0.00929534 1.03115e-08 0)
(-0.00929519 1.02294e-08 0)
(-0.00929503 1.01421e-08 1.2045e-23)
(-0.0092949 1.01744e-08 0)
(-0.00929474 1.01795e-08 -1.20462e-23)
(-0.00929461 1.00849e-08 0)
(-0.00929446 1.01263e-08 0)
(-0.00929433 1.02802e-08 0)
(-0.00929418 1.03188e-08 -1.20485e-23)
(-0.00929403 1.04356e-08 0)
(-0.00929388 1.04669e-08 0)
(-0.00929372 1.05786e-08 0)
(-0.00929355 1.05788e-08 0)
(-0.00929338 1.05313e-08 1.20514e-23)
(-0.00929319 1.05215e-08 0)
(-0.00929301 1.05123e-08 0)
(-0.00929283 1.03308e-08 0)
(-0.00929266 1.02486e-08 0)
(-0.0092925 1.02843e-08 0)
(-0.00929235 1.00054e-08 0)
(-0.0092922 1.04113e-08 0)
(-0.00929205 1.03207e-08 0)
(-0.00929191 1.06939e-08 0)
(-0.00929175 1.09799e-08 0)
(-0.00929156 1.12183e-08 1.2058e-23)
(-0.00929129 1.15996e-08 0)
(-0.00929116 8.80932e-09 -1.20593e-23)
(-0.00929174 8.32507e-09 0)
(-0.00929043 9.39592e-09 0)
(-0.00938 -5.23909e-09 0)
(-0.00937998 -7.21738e-09 0)
(-0.00938217 -8.80382e-10 0)
(-0.00938279 1.37958e-08 0)
(-0.00937874 5.9052e-10 0)
(-0.00937108 -2.10827e-08 0)
(-0.00936554 -1.15782e-08 0)
(-0.00936348 8.40057e-10 0)
(-0.00936202 -1.36644e-10 0)
(-0.00935818 2.40305e-09 0)
(-0.00935106 -5.32758e-09 0)
(-0.00934375 -1.85488e-08 0)
(-0.00933905 -1.03209e-08 0)
(-0.00933675 3.40519e-09 0)
(-0.00933461 8.22892e-10 0)
(-0.00933038 -2.3923e-09 0)
(-0.00932417 -5.71622e-09 0)
(-0.00931885 -1.34865e-08 0)
(-0.00931556 -7.48392e-09 0)
(-0.00931393 3.35424e-09 0)
(-0.00931235 7.95973e-10 0)
(-0.00930934 -1.96308e-09 0)
(-0.00930521 -4.38418e-09 0)
(-0.00930173 -8.53128e-09 0)
(-0.00929964 -4.42583e-09 0)
(-0.00929868 1.29741e-09 0)
(-0.00929789 1.01688e-09 0)
(-0.00929657 9.63395e-11 0)
(-0.00929461 -1.73866e-09 0)
(-0.0092925 -5.16558e-09 0)
(-0.00929097 -3.69298e-09 0)
(-0.0092904 -1.93017e-10 0)
(-0.00929041 3.19403e-11 0)
(-0.00929034 2.83496e-09 0)
(-0.0092898 1.00145e-09 0)
(-0.00928868 -3.26204e-09 0)
(-0.00928766 -1.96395e-09 0)
(-0.00928735 -1.99714e-09 0)
(-0.0092876 -3.12855e-10 0)
(-0.00928815 3.33206e-09 0)
(-0.00928848 1.91729e-09 0)
(-0.00928841 6.76417e-10 0)
(-0.00928806 -2.39862e-10 0)
(-0.00928758 -3.20213e-09 0)
(-0.00928732 -1.88732e-09 0)
(-0.00928744 -7.34945e-10 0)
(-0.00928783 2.00656e-10 0)
(-0.00928836 2.93244e-09 0)
(-0.00928879 1.93336e-09 0)
(-0.00928904 2.1859e-09 0)
(-0.00928914 1.46155e-09 0)
(-0.00928905 -6.694e-10 0)
(-0.0092889 -7.02447e-10 0)
(-0.00928877 -2.24668e-09 0)
(-0.00928874 -1.34718e-09 0)
(-0.00928886 -5.85618e-10 0)
(-0.00928907 2.56138e-10 0)
(-0.00928936 1.70397e-09 0)
(-0.00928963 1.3687e-09 0)
(-0.00928985 1.92388e-09 0)
(-0.00929 1.29252e-09 0)
(-0.00929008 9.78634e-10 0)
(-0.00929013 5.79088e-10 0)
(-0.00929013 -1.47692e-10 0)
(-0.00929014 -2.05223e-10 0)
(-0.00929012 -6.99147e-10 0)
(-0.0092902 -4.72266e-10 0)
(-0.00929009 -2.78484e-10 0)
(-0.00929071 -1.81229e-09 0)
(-0.00928895 8.95577e-09 0)
(-0.0239541 -0.000335432 0)
(-0.0091071 -9.37274e-06 0)
(-0.00802279 -6.9726e-07 0)
(-0.00781721 5.11501e-08 0)
(-0.00808015 3.27881e-07 0)
(-0.00838201 2.53576e-07 0)
(-0.00854042 1.27022e-07 0)
(-0.0086165 6.55608e-08 0)
(-0.00865866 3.36812e-08 0)
(-0.00868262 1.91957e-08 0)
(-0.008698 1.48956e-08 0)
(-0.00870488 7.95391e-09 0)
(-0.00870641 -1.97084e-09 0)
(-0.00871195 6.17539e-09 0)
(-0.00872345 1.39584e-08 0)
(-0.00872877 7.14667e-09 0)
(-0.00873379 4.76782e-09 0)
(-0.00874588 1.48348e-08 0)
(-0.00876049 1.70786e-08 0)
(-0.00877135 1.34226e-08 0)
(-0.00878692 1.68221e-08 0)
(-0.00880358 1.87117e-08 0)
(-0.00882213 2.06415e-08 0)
(-0.00884097 2.24637e-08 0)
(-0.00886145 2.26299e-08 0)
(-0.00888176 2.2542e-08 0)
(-0.00890421 2.37511e-08 0)
(-0.00892722 2.73704e-08 0)
(-0.00895186 2.70508e-08 0)
(-0.00897604 2.8002e-08 0)
(-0.00900126 2.68443e-08 0)
(-0.00902674 2.85116e-08 0)
(-0.00905501 3.15264e-08 0)
(-0.00908305 3.4742e-08 0)
(-0.00911009 2.9285e-08 0)
(-0.00913547 2.18994e-08 0)
(-0.00916707 3.4591e-08 0)
(-0.0091998 4.74552e-08 0)
(-0.00922422 2.88695e-08 0)
(-0.00924351 3.06428e-09 0)
(-0.00926981 2.09337e-08 0)
(-0.00929809 4.56348e-08 0)
(-0.00931864 3.02047e-08 0)
(-0.00933258 8.38666e-09 0)
(-0.00934321 7.22836e-09 0)
(-0.00935349 1.32273e-09 0)
(-0.00936496 7.03239e-09 0)
(-0.00937607 2.35482e-08 0)
(-0.00938263 1.04763e-08 0)
(-0.00938259 -4.89246e-09 0)
)
;
    }
    upperWall
    {
        type            calculated;
        value           nonuniform List<vector> 
496
(
(-0.000630028 6.72275e-08 0)
(-0.000646111 4.84516e-08 3.78666e-27)
(-0.000651865 5.51856e-08 0)
(-0.000663087 5.51084e-08 0)
(-0.000671649 5.78001e-08 0)
(-0.000682265 5.91625e-08 1.22473e-26)
(-0.000691638 6.15483e-08 0)
(-0.000702515 6.39423e-08 0)
(-0.000712556 6.59658e-08 3.89976e-26)
(-0.000723754 6.88425e-08 0)
(-0.000734472 7.0851e-08 -4.9025e-26)
(-0.000746012 7.37621e-08 0)
(-0.000757352 7.59221e-08 0)
(-0.000769267 7.88174e-08 0)
(-0.00078118 8.11529e-08 0)
(-0.000793494 8.39453e-08 0)
(-0.000805912 8.63264e-08 8.02065e-26)
(-0.000818606 8.88743e-08 0)
(-0.000831426 9.10741e-08 0)
(-0.000844416 9.32335e-08 0)
(-0.000857501 9.55044e-08 0)
(-0.000870791 9.97677e-08 1.06668e-25)
(-0.000884633 1.07508e-07 -1.11907e-25)
(-0.000899344 1.13215e-07 1.1713e-25)
(-0.00091418 1.15568e-07 1.22306e-25)
(-0.000929199 1.18241e-07 0)
(-0.000944384 1.2073e-07 0)
(-0.000959712 1.23194e-07 0)
(-0.000975185 1.25627e-07 0)
(-0.000990783 1.27932e-07 0)
(-0.00100648 1.29976e-07 0)
(-0.00102225 1.31864e-07 0)
(-0.00103807 1.33687e-07 1.60037e-25)
(-0.00105393 1.35304e-07 0)
(-0.00106981 1.36913e-07 0)
(-0.00108571 1.38499e-07 0)
(-0.00110161 1.39866e-07 0)
(-0.00111749 1.41256e-07 1.76807e-25)
(-0.00113336 1.42576e-07 0)
(-0.00114918 1.43453e-07 -1.80909e-25)
(-0.0011649 1.44319e-07 0)
(-0.00118056 1.45175e-07 1.82956e-25)
(-0.00119611 1.45766e-07 0)
(-0.00121155 1.46468e-07 0)
(-0.00122689 1.47374e-07 0)
(-0.00124214 1.48146e-07 1.78918e-25)
(-0.00125727 1.48999e-07 1.75781e-25)
(-0.00127231 1.50047e-07 1.7162e-25)
(-0.00128726 1.51262e-07 0)
(-0.00130214 1.52823e-07 0)
(-0.00131697 1.54365e-07 0)
(-0.00133172 1.55883e-07 0)
(-0.00134642 1.57702e-07 0)
(-0.00136108 1.59761e-07 0)
(-0.00137572 1.62097e-07 0)
(-0.00139036 1.64709e-07 -4.39422e-26)
(-0.00140501 1.67437e-07 -3.45388e-26)
(-0.00141967 1.69886e-07 0)
(-0.00143425 1.71296e-07 1.2065e-26)
(-0.00144864 1.7302e-07 0)
(-0.00146314 1.91195e-07 0)
(-0.0014789 2.26392e-07 0)
(-0.00149582 2.4913e-07 5.16984e-26)
(-0.00151274 2.5761e-07 0)
(-0.00152962 2.66276e-07 0)
(-0.00154649 2.75113e-07 0)
(-0.00156334 2.84015e-07 1.49271e-25)
(-0.00158018 2.93072e-07 0)
(-0.00159699 3.02182e-07 0)
(-0.00161378 3.11399e-07 0)
(-0.00163053 3.20688e-07 -1.42779e-25)
(-0.00164723 3.30107e-07 0)
(-0.00166388 3.39445e-07 0)
(-0.00168045 3.48703e-07 -2.07577e-25)
(-0.00169691 3.58091e-07 0)
(-0.00171327 3.67156e-07 -2.57506e-25)
(-0.00172948 3.75777e-07 0)
(-0.00174551 3.84246e-07 0)
(-0.00176136 3.92501e-07 3.42617e-25)
(-0.00177699 4.0052e-07 0)
(-0.00179239 4.08338e-07 0)
(-0.00180754 4.15887e-07 0)
(-0.00182242 4.23207e-07 -2.37571e-25)
(-0.00183703 4.3027e-07 0)
(-0.00185134 4.37068e-07 2.74745e-25)
(-0.00186535 4.43533e-07 0)
(-0.00187904 4.49758e-07 0)
(-0.00189241 4.55763e-07 -3.35487e-25)
(-0.00190544 4.61478e-07 0)
(-0.00191814 4.66906e-07 -3.79259e-25)
(-0.0019305 4.72056e-07 0)
(-0.00194251 4.76886e-07 2.12809e-25)
(-0.00195418 4.81332e-07 0)
(-0.00196549 4.8536e-07 2.37268e-25)
(-0.00197646 4.88911e-07 -2.49973e-25)
(-0.00198706 4.92076e-07 0)
(-0.00199732 4.9487e-07 2.76325e-25)
(-0.00200723 4.9728e-07 0)
(-0.00201679 4.99351e-07 0)
(-0.00202602 5.01062e-07 3.18181e-25)
(-0.00203491 5.02468e-07 0)
(-0.00204347 5.03542e-07 1.73806e-25)
(-0.00205171 5.04307e-07 1.81389e-25)
(-0.00205964 5.04775e-07 -1.89121e-25)
(-0.00206726 5.04978e-07 1.96999e-25)
(-0.00207459 5.04904e-07 0)
(-0.00208162 5.04589e-07 0)
(-0.00208838 5.04027e-07 0)
(-0.00209487 5.03288e-07 0)
(-0.0021011 5.02311e-07 -2.38523e-25)
(-0.00210707 5.01221e-07 1.23619e-25)
(-0.0021128 4.9999e-07 1.2804e-25)
(-0.0021183 4.98697e-07 0)
(-0.00212358 4.97394e-07 0)
(-0.00212865 4.9626e-07 0)
(-0.00213351 4.95449e-07 0)
(-0.00213819 4.94278e-07 0)
(-0.00214268 4.92115e-07 -1.55821e-25)
(-0.002147 4.92469e-07 1.60638e-25)
(-0.00215118 4.98828e-07 0)
(-0.00215533 4.97438e-07 -1.66306e-25)
(-0.00215945 4.85732e-07 0)
(-0.00216352 4.73845e-07 0)
(-0.00216757 4.60491e-07 0)
(-0.00217158 4.4684e-07 8.55244e-26)
(-0.00217554 4.32567e-07 -2.57628e-25)
(-0.00217946 4.17913e-07 1.72093e-25)
(-0.00218333 4.02765e-07 1.39025e-24)
(-0.00218715 3.87525e-07 0)
(-0.00219093 3.72915e-07 -1.7664e-25)
(-0.00219467 3.58862e-07 1.76666e-25)
(-0.00219838 3.45147e-07 2.85467e-24)
(-0.00220205 3.31419e-07 0)
(-0.00220568 3.17648e-07 2.89332e-24)
(-0.00220927 3.04004e-07 2.91312e-24)
(-0.00221283 2.90351e-07 -3.678e-25)
(-0.00221635 2.7665e-07 3.32173e-24)
(-0.00221983 2.62879e-07 0)
(-0.00222327 2.49254e-07 0)
(-0.00222667 2.3575e-07 -2.82791e-24)
(-0.00223004 2.22369e-07 1.15902e-27)
(-0.00223336 2.0907e-07 -3.82636e-25)
(-0.00223664 1.95445e-07 6.35948e-24)
(-0.00223987 1.81842e-07 -6.21326e-24)
(-0.00224306 1.69696e-07 -6.06376e-24)
(-0.00224623 1.59002e-07 -1.96521e-25)
(-0.00224935 1.45092e-07 0)
(-0.00225239 1.24981e-07 -6.40483e-24)
(-0.00225532 1.17203e-07 -1.01285e-25)
(-0.00225827 1.16355e-07 1.00026e-25)
(-0.00226123 1.15701e-07 6.37922e-24)
(-0.00226422 1.15503e-07 -3.97334e-25)
(-0.00226721 1.15337e-07 -5.90415e-24)
(-0.00227024 1.15321e-07 0)
(-0.00227328 1.15323e-07 -6.21461e-24)
(-0.00227634 1.15305e-07 0)
(-0.0022794 1.14854e-07 -6.13385e-24)
(-0.00228249 1.14453e-07 0)
(-0.00228558 1.14074e-07 0)
(-0.00228867 1.13721e-07 -7.54582e-25)
(-0.00229177 1.13338e-07 7.44326e-25)
(-0.00229488 1.12992e-07 -7.44984e-25)
(-0.00229798 1.12631e-07 2.21523e-24)
(-0.00230109 1.12207e-07 1.12599e-26)
(-0.00230418 1.11766e-07 1.13988e-26)
(-0.00230728 1.11309e-07 -1.30181e-23)
(-0.00231036 1.10871e-07 1.44392e-24)
(-0.00231343 1.10412e-07 -2.85832e-24)
(-0.00231648 1.09953e-07 1.41439e-24)
(-0.00231952 1.09439e-07 9.87604e-24)
(-0.00232253 1.08977e-07 2.80655e-24)
(-0.00232552 1.08508e-07 -1.3887e-24)
(-0.00232848 1.07986e-07 1.1094e-23)
(-0.0023314 1.07484e-07 2.20599e-23)
(-0.00233429 1.06886e-07 2.05572e-23)
(-0.00233713 1.06235e-07 1.35668e-24)
(-0.00233993 1.05566e-07 0)
(-0.00234267 1.04888e-07 0)
(-0.00234535 1.04147e-07 0)
(-0.00234796 1.0337e-07 2.00118e-23)
(-0.00235051 1.02518e-07 2.25679e-23)
(-0.00235297 1.01633e-07 0)
(-0.00235535 1.00619e-07 0)
(-0.00235764 9.95857e-08 2.09499e-23)
(-0.00235982 9.83714e-08 -2.21699e-23)
(-0.0023619 9.71034e-08 1.29046e-24)
(-0.00236385 9.56766e-08 -2.19894e-23)
(-0.00236567 9.41431e-08 -1.93298e-23)
(-0.00236736 9.24943e-08 0)
(-0.00236889 9.06897e-08 0)
(-0.00237026 8.86553e-08 0)
(-0.00237146 8.64796e-08 -1.28036e-24)
(-0.00237246 8.41153e-08 -3.80438e-23)
(-0.00237327 8.14989e-08 -4.17403e-23)
(-0.00237386 7.85646e-08 0)
(-0.00237422 7.53486e-08 -1.26995e-24)
(-0.00237432 7.17741e-08 1.24864e-24)
(-0.00237417 6.78084e-08 0)
(-0.00237372 6.33128e-08 -1.26639e-24)
(-0.00237297 5.83788e-08 2.51099e-24)
(-0.00237189 5.29956e-08 2.17944e-26)
(-0.00237046 4.71071e-08 -1.24466e-24)
(-0.00236868 4.0613e-08 -3.89447e-23)
(-0.00236651 3.34461e-08 -2.51667e-24)
(-0.00236394 2.55496e-08 4.0304e-23)
(-0.00236094 1.67429e-08 8.20812e-23)
(-0.0023575 6.89229e-09 -7.97671e-23)
(-0.00235358 -4.09284e-09 -1.25722e-24)
(-0.00234917 -1.62649e-08 8.226e-23)
(-0.00234425 -2.98481e-08 8.13406e-23)
(-0.00233879 -4.5053e-08 8.17352e-23)
(-0.00233279 -6.20283e-08 6.39731e-25)
(-0.00232624 -8.091e-08 -8.27288e-23)
(-0.00231913 -1.02115e-07 -9.80298e-25)
(-0.00231146 -1.25912e-07 3.26426e-25)
(-0.00230324 -1.52667e-07 0)
(-0.00229447 -1.83288e-07 0)
(-0.00228515 -2.18128e-07 0)
(-0.00227545 -2.55579e-07 0)
(-0.00226567 -2.95014e-07 -1.88191e-25)
(-0.00225587 -3.37393e-07 -9.9891e-23)
(-0.00224586 -3.84256e-07 1.05502e-22)
(-0.00223544 -3.94692e-07 1.11193e-22)
(-0.00222718 -3.98582e-07 9.28623e-25)
(-0.00221978 -4.39227e-07 -9.50563e-25)
(-0.00221272 -4.8323e-07 1.02972e-24)
(-0.00220624 -5.26626e-07 2.99671e-26)
(-0.00220037 -5.70426e-07 -2.25031e-24)
(-0.00219521 -6.14259e-07 -1.49137e-22)
(-0.00219084 -6.57739e-07 -1.22859e-24)
(-0.00218732 -7.01691e-07 -8.51605e-23)
(-0.00218469 -7.45526e-07 2.75592e-24)
(-0.00218308 -7.88976e-07 -1.42932e-24)
(-0.00218249 -8.33151e-07 9.74422e-23)
(-0.00218293 -8.7772e-07 0)
(-0.00218447 -9.21554e-07 1.07614e-22)
(-0.00218719 -9.65266e-07 -1.11268e-22)
(-0.00219111 -1.00933e-06 1.16923e-22)
(-0.0021962 -1.05411e-06 -1.24717e-22)
(-0.00220245 -1.09882e-06 0)
(-0.00220994 -1.14279e-06 -1.3748e-22)
(-0.00221867 -1.18765e-06 -2.28416e-24)
(-0.00222853 -1.2334e-06 4.7341e-24)
(-0.0022395 -1.27938e-06 1.5898e-22)
(-0.0022516 -1.32472e-06 1.64157e-22)
(-0.00226484 -1.37054e-06 0)
(-0.00227904 -1.41841e-06 0)
(-0.00229412 -1.46644e-06 -3.04395e-24)
(-0.00231011 -1.51284e-06 6.30587e-24)
(-0.002327 -1.55866e-06 1.02488e-22)
(-0.00234469 -1.6062e-06 1.10862e-22)
(-0.00236303 -1.65206e-06 0)
(-0.00238225 -1.69236e-06 0)
(-0.00240243 -1.7303e-06 -1.27624e-22)
(-0.00242349 -1.76791e-06 4.22964e-24)
(-0.00244538 -1.80115e-06 1.40192e-22)
(-0.00246833 -1.82869e-06 -4.53266e-24)
(-0.0024923 -1.85526e-06 0)
(-0.00251713 -1.88088e-06 0)
(-0.00254284 -1.89864e-06 1.6849e-22)
(-0.00256967 -1.91054e-06 1.7638e-22)
(-0.0025975 -1.92267e-06 0)
(-0.00262612 -1.92753e-06 0)
(-0.00265588 -1.92241e-06 -6.38984e-24)
(-0.00268678 -1.91352e-06 6.53555e-24)
(-0.00271863 -1.90052e-06 0)
(-0.00275157 -1.87194e-06 -3.65481e-24)
(-0.00278601 -1.83571e-06 3.73785e-24)
(-0.00282164 -1.79657e-06 1.26392e-22)
(-0.00285851 -1.73787e-06 0)
(-0.00289727 -1.66722e-06 1.42371e-22)
(-0.00293765 -1.59285e-06 -9.01173e-24)
(-0.00297953 -1.49969e-06 4.65625e-24)
(-0.00302356 -1.39189e-06 0)
(-0.00306944 -1.28301e-06 1.69221e-22)
(-0.00311677 -1.15456e-06 -5.29572e-24)
(-0.00316675 -9.74034e-07 1.7853e-22)
(-0.00322163 -7.06295e-07 0)
(-0.00328517 -4.34787e-07 3.06062e-24)
(-0.00335334 -2.01488e-07 -3.1285e-24)
(-0.00342627 4.832e-08 1.05222e-22)
(-0.00350417 3.124e-07 1.72675e-24)
(-0.00358712 5.95717e-07 -1.76477e-24)
(-0.00367549 8.89763e-07 1.18475e-22)
(-0.00376907 1.19103e-06 0)
(-0.00386782 1.50954e-06 1.00738e-24)
(-0.00397223 1.83823e-06 1.31763e-22)
(-0.00408126 2.13563e-06 -1.37789e-22)
(-0.00419495 2.40593e-06 0)
(-0.00431657 2.68689e-06 5.58066e-25)
(-0.00444654 2.91989e-06 8.15064e-27)
(-0.0045831 3.14054e-06 -1.47775e-22)
(-0.00472675 3.34211e-06 1.14936e-24)
(-0.00487691 3.52355e-06 -1.49033e-22)
(-0.00503336 3.68412e-06 -1.18153e-24)
(-0.00519552 3.82165e-06 0)
(-0.00536292 3.93474e-06 0)
(-0.00553484 4.02608e-06 0)
(-0.00571084 4.09864e-06 0)
(-0.00589053 4.1587e-06 1.26981e-24)
(-0.00607384 4.21107e-06 -2.55241e-24)
(-0.00626072 4.24631e-06 1.28255e-24)
(-0.00645029 4.23612e-06 8.3265e-23)
(-0.00664022 4.16433e-06 1.31791e-24)
(-0.00682717 4.06158e-06 1.07188e-26)
(-0.00701074 3.94366e-06 -1.32793e-24)
(-0.00718984 3.80263e-06 0)
(-0.00736342 3.64554e-06 4.32355e-23)
(-0.00753059 3.47249e-06 0)
(-0.00769049 3.28715e-06 -4.44057e-23)
(-0.0078424 3.09161e-06 4.46148e-23)
(-0.0079857 2.88992e-06 -6.90735e-25)
(-0.00811995 2.68385e-06 2.28326e-23)
(-0.00824455 2.46802e-06 -2.18675e-23)
(-0.00835901 2.25302e-06 -1.73269e-25)
(-0.00846465 2.07998e-06 5.40909e-24)
(-0.00856254 1.9074e-06 0)
(-0.0086526 1.71463e-06 0)
(-0.0087364 1.53177e-06 -2.57587e-24)
(-0.00881425 1.35095e-06 2.46845e-24)
(-0.00888538 1.17662e-06 2.36482e-24)
(-0.00894968 1.01175e-06 4.52978e-24)
(-0.00900702 8.58355e-07 0)
(-0.00905752 7.18365e-07 0)
(-0.00910139 5.92963e-07 0)
(-0.009139 4.82709e-07 0)
(-0.00917083 3.87513e-07 0)
(-0.00919742 3.06678e-07 0)
(-0.00921933 2.3901e-07 -6.64673e-24)
(-0.00923713 1.83061e-07 0)
(-0.00925137 1.38063e-07 -6.0716e-24)
(-0.00926264 1.0249e-07 0)
(-0.00927145 7.43666e-08 0)
(-0.0092782 5.23496e-08 5.29397e-24)
(-0.00928329 3.5778e-08 0)
(-0.00928708 2.33035e-08 0)
(-0.00928985 1.40016e-08 9.21938e-24)
(-0.00929183 7.21536e-09 -8.80126e-24)
(-0.00929322 2.33762e-09 8.40096e-24)
(-0.00929416 -1.23756e-09 8.01777e-24)