0 	0.00241936 	0 	0 	0 	1.0235e-05 	0 	0 	1.0235e-05 	0 	1.0235e-05
0.0474747 	0.00241948 	0.172398 	9.72246e-06 	1.12316e-25 	0.000372515 	-0.000169004 	2.17653e-26 	0.000372423 	-1.21466e-26 	0.000372469
0.0949495 	0.0024195 	0.241257 	2.15123e-05 	1.54544e-24 	0.000670224 	-0.000310708 	5.88345e-26 	0.000670006 	3.31275e-26 	0.000670116
0.142424 	0.00241941 	0.272218 	2.49663e-05 	-1.18392e-24 	0.000753311 	-0.000340028 	-4.03866e-25 	0.000753355 	-4.62843e-26 	0.000753332
0.189899 	0.00241883 	0.290816 	2.06187e-05 	-1.33322e-24 	0.00079665 	-0.000347307 	-8.49804e-25 	0.000797391 	-1.72385e-26 	0.000797021
0.237374 	0.00241866 	0.303569 	9.92743e-06 	9.93588e-25 	0.000831196 	-0.000348785 	6.23659e-25 	0.000832945 	-4.44486e-25 	0.00083207
0.284848 	0.00241761 	0.313165 	-6.60464e-06 	6.72905e-24 	0.000864255 	-0.000347851 	5.5812e-24 	0.000867311 	1.53031e-25 	0.000865783
0.332323 	0.00241666 	0.320798 	-2.72302e-05 	-2.77205e-24 	0.000897702 	-0.000346735 	-2.86007e-24 	0.000902228 	1.3251e-25 	0.000899965
0.379798 	0.00241575 	0.32708 	-5.11986e-05 	-2.03663e-24 	0.000931883 	-0.000345783 	-2.75126e-24 	0.000937982 	-4.32002e-26 	0.000934933
0.427273 	0.00241467 	0.332448 	-7.80791e-05 	-2.19824e-24 	0.00096687 	-0.000345151 	-2.84412e-24 	0.000974618 	-9.96373e-26 	0.000970744
0.474747 	0.00241358 	0.337117 	-0.000107148 	9.67805e-25 	0.00100232 	-0.000344958 	1.53136e-24 	0.00101175 	-7.84481e-26 	0.00100703
0.522222 	0.00241265 	0.341235 	-0.000137575 	5.12651e-26 	0.00103774 	-0.000345182 	-3.72861e-26 	0.00104883 	1.36393e-25 	0.00104328
0.569697 	0.0024116 	0.344962 	-0.000169378 	-5.26508e-24 	0.00107309 	-0.000345692 	-9.98678e-24 	0.00108582 	-1.36863e-25 	0.00107945
0.617172 	0.00241013 	0.348381 	-0.000203497 	1.96806e-24 	0.00110911 	-0.000346593 	4.08404e-24 	0.00112349 	-1.09314e-25 	0.0011163
0.664646 	0.00240892 	0.351514 	-0.000237839 	3.09539e-24 	0.00114453 	-0.000347773 	6.22731e-24 	0.00116048 	-6.64282e-26 	0.00115251
0.712121 	0.00240788 	0.354411 	-0.000272016 	2.88017e-25 	0.00117892 	-0.000349044 	5.80594e-25 	0.00119635 	2.1341e-25 	0.00118764
0.759596 	0.0024062 	0.357183 	-0.000308926 	-1.82971e-24 	0.00121437 	-0.000350712 	-4.13657e-24 	0.00123328 	-9.32035e-27 	0.00122382
0.807071 	0.0024053 	0.359697 	-0.000343459 	1.01215e-25 	0.00124753 	-0.000352273 	2.72995e-25 	0.00126776 	-3.14574e-26 	0.00125765
0.854545 	0.00240365 	0.36217 	-0.000380705 	1.60809e-24 	0.00128156 	-0.000354117 	4.04681e-24 	0.00130308 	-1.41375e-25 	0.00129232
0.90202 	0.00240269 	0.364433 	-0.000415544 	5.75706e-25 	0.0013135 	-0.000355793 	1.44241e-24 	0.00133618 	5.17876e-27 	0.00132484
0.949495 	0.00240099 	0.366693 	-0.000453004 	1.85257e-24 	0.00134621 	-0.000357707 	4.22407e-24 	0.00136999 	1.22094e-25 	0.0013581
0.99697 	0.00240006 	0.368746 	-0.000487313 	4.26861e-25 	0.00137639 	-0.0003593 	9.10033e-25 	0.00140114 	3.60586e-26 	0.00138876
1.04444 	0.00239848 	0.370806 	-0.000524004 	-1.34545e-24 	0.00140726 	-0.000361108 	-3.35644e-24 	0.00143289 	4.49668e-26 	0.00142007
1.09192 	0.00239728 	0.372737 	-0.000558664 	-9.52777e-25 	0.00143626 	-0.000362627 	-2.36544e-24 	0.00146268 	-6.6586e-26 	0.00144947
1.13939 	0.00239602 	0.374617 	-0.000593474 	3.32635e-25 	0.00146486 	-0.000364138 	9.39648e-25 	0.00149197 	-1.58005e-25 	0.00147842
1.18687 	0.00239443 	0.376481 	-0.00062879 	1.21687e-24 	0.0014928 	-0.000365511 	3.42056e-24 	0.00152048 	-6.00077e-26 	0.00150664
1.23434 	0.00239343 	0.378195 	-0.00066132 	4.34826e-24 	0.00151881 	-0.000366568 	1.2459e-23 	0.00154699 	7.96733e-26 	0.0015329
1.28182 	0.00239197 	0.379926 	-0.000695183 	2.50986e-24 	0.00154468 	-0.000367573 	7.16241e-24 	0.0015732 	9.83577e-26 	0.00155895
1.32929 	0.00239052 	0.381609 	-0.000728135 	-9.69119e-25 	0.00156939 	-0.000368301 	-2.87274e-24 	0.00159816 	9.80531e-26 	0.00158378
1.37677 	0.00238947 	0.383184 	-0.000759018 	-4.03912e-24 	0.00159274 	-0.000368783 	-1.18009e-23 	0.0016217 	2.15367e-25 	0.00160723
1.42424 	0.00238804 	0.384776 	-0.00079054 	-3.00882e-24 	0.00161535 	-0.000369007 	-8.75443e-24 	0.00164433 	1.37334e-25 	0.00162986
1.47172 	0.00238657 	0.386341 	-0.00082131 	-7.03961e-25 	0.00163692 	-0.000368929 	-1.99509e-24 	0.00166582 	-4.73678e-28 	0.00165139
1.51919 	0.00238551 	0.387787 	-0.000849742 	-3.15504e-25 	0.00165715 	-0.000368577 	-9.09262e-25 	0.00168591 	-1.26162e-25 	0.00167157
1.56667 	0.00238422 	0.389246 	-0.000878347 	-4.39697e-26 	0.00167663 	-0.00036793 	-1.37186e-25 	0.00170516 	-1.50164e-25 	0.00169092
1.61414 	0.0023827 	0.390709 	-0.000906399 	-3.57461e-25 	0.00169447 	-0.000366749 	-1.13979e-24 	0.00172268 	-5.56109e-26 	0.00170858
1.66162 	0.0023815 	0.392071 	-0.000932348 	-2.273e-25 	0.00171136 	-0.000365349 	-7.1121e-25 	0.00173918 	-5.05654e-26 	0.00172527
1.70909 	0.00238034 	0.3934 	-0.000957652 	-2.05238e-27 	0.00172766 	-0.000363831 	2.34262e-26 	0.00175507 	-6.88659e-26 	0.00174136
1.75657 	0.0023788 	0.394738 	-0.000982996 	5.60123e-26 	0.00174186 	-0.00036191 	1.94018e-25 	0.00176889 	-5.40228e-26 	0.00175535
1.80404 	0.00237715 	0.396074 	-0.00100802 	1.88959e-25 	0.0017549 	-0.000359735 	5.82083e-25 	0.00178157 	-3.65559e-26 	0.00176819
1.85152 	0.00237592 	0.397294 	-0.00103024 	1.09628e-24 	0.00176717 	-0.000357213 	3.36993e-24 	0.00179334 	-1.16114e-26 	0.00178019
1.89899 	0.00237461 	0.398508 	-0.00105237 	1.84174e-24 	0.0017789 	-0.000354643 	5.66008e-24 	0.00180459 	8.25575e-27 	0.00179168
1.94646 	0.00237286 	0.399727 	-0.00107481 	1.51436e-24 	0.00178788 	-0.000351818 	4.66617e-24 	0.00181312 	9.94375e-27 	0.00180044
1.99394 	0.00237099 	0.400943 	-0.00109706 	7.46308e-25 	0.00179532 	-0.000348757 	2.34302e-24 	0.00182013 	1.29084e-26 	0.00180767
2.04141 	0.00236948 	0.402078 	-0.00111706 	-2.10873e-26 	0.00180251 	-0.000345336 	1.93302e-26 	0.00182684 	5.7643e-26 	0.00181463
2.08889 	0.00236811 	0.403181 	-0.00113619 	-7.8823e-25 	0.00180961 	-0.000341778 	-2.30457e-24 	0.00183343 	1.18371e-25 	0.00182148
2.13636 	0.00236642 	0.404294 	-0.00115561 	-9.50817e-25 	0.00181446 	-0.000337972 	-2.79721e-24 	0.0018376 	1.30424e-25 	0.00182601
2.18384 	0.00236459 	0.405408 	-0.0011749 	-7.0717e-25 	0.00181596 	-0.000333683 	-2.08503e-24 	0.0018383 	8.56201e-26 	0.00182714
2.23131 	0.00236278 	0.406516 	-0.00119399 	-5.13107e-25 	0.00181734 	-0.00032935 	-1.5172e-24 	0.00183889 	4.115e-26 	0.00182814
2.27879 	0.0023614 	0.407525 	-0.00121055 	-1.14432e-24 	0.00181892 	-0.000324686 	-3.35672e-24 	0.00183972 	2.94901e-26 	0.00182936
2.32626 	0.00236002 	0.408535 	-0.00122711 	-1.77552e-24 	0.00182049 	-0.000320021 	-5.19625e-24 	0.00184056 	1.78302e-26 	0.00183057
2.37374 	0.00235858 	0.409512 	-0.00124196 	-1.83148e-24 	0.00181894 	-0.000314766 	-5.37328e-24 	0.00183793 	-3.44653e-27 	0.0018285
2.42121 	0.00235723 	0.410443 	-0.00125516 	-1.25556e-24 	0.0018142 	-0.000309021 	-3.7233e-24 	0.00183195 	-4.13617e-26 	0.00182314
2.46869 	0.00235588 	0.411373 	-0.00126837 	-6.79643e-25 	0.00180946 	-0.000303277 	-2.07331e-24 	0.00182596 	-7.92768e-26 	0.00181778
2.51616 	0.00235465 	0.412392 	-0.00128235 	-8.09011e-25 	0.00180462 	-0.000296446 	-2.54427e-24 	0.00181983 	-1.64225e-25 	0.00181231
2.56364 	0.00235344 	0.413415 	-0.00129624 	-9.55152e-25 	0.00179966 	-0.000289515 	-3.05337e-24 	0.00181356 	-2.48472e-25 	0.0018067
2.61111 	0.00235234 	0.41435 	-0.00130642 	-1.86553e-25 	0.00179172 	-0.000282208 	-5.06516e-25 	0.00180412 	-2.23916e-25 	0.00179799
2.65859 	0.00235135 	0.415203 	-0.00131421 	1.12894e-24 	0.0017817 	-0.000274961 	3.86568e-24 	0.00179257 	-1.22438e-25 	0.00178719
2.70606 	0.00235042 	0.41608 	-0.00132218 	2.68913e-24 	0.00177153 	-0.000267392 	9.10236e-24 	0.00178084 	-3.2054e-26 	0.00177621
2.75354 	0.00234964 	0.417019 	-0.0013306 	4.88837e-24 	0.00176095 	-0.000258984 	1.65968e-23 	0.00176863 	2.93561e-26 	0.00176479
2.80101 	0.00234881 	0.417917 	-0.00133718 	5.55528e-24 	0.00174899 	-0.000250038 	1.88669e-23 	0.00175507 	8.54534e-26 	0.00175202
2.84848 	0.00234791 	0.418706 	-0.00134045 	3.21232e-24 	0.00173442 	-0.000240319 	1.0851e-23 	0.00173903 	1.22433e-25 	0.0017367
2.89596 	0.00234703 	0.419478 	-0.00134315 	3.428e-25 	0.00171934 	-0.00023042 	1.0282e-24 	0.00172249 	1.56757e-25 	0.00172088
2.94343 	0.00234647 	0.420322 	-0.00134602 	-2.27895e-24 	0.00170344 	-0.000219528 	-8.01265e-24 	0.00170499 	2.15904e-25 	0.00170417
2.99091 	0.00234576 	0.421127 	-0.00134748 	-3.91883e-24 	0.00168638 	-0.000208343 	-1.3624e-23 	0.00168645 	2.25151e-25 	0.00168636
3.03838 	0.00234474 	0.42182 	-0.00134604 	-3.13167e-24 	0.00166685 	-0.000196665 	-1.08487e-23 	0.00166578 	1.13053e-25 	0.00166627
3.08586 	0.00234381 	0.422511 	-0.00134407 	-1.92906e-24 	0.00164667 	-0.000184586 	-6.6499e-24 	0.00164446 	-9.10561e-27 	0.00164552
3.13333 	0.00234325 	0.423252 	-0.00134174 	-6.22853e-25 	0.0016256 	-0.000171511 	-2.1041e-24 	0.00162212 	-1.06017e-25 	0.00162383
3.18081 	0.00234229 	0.423908 	-0.00133771 	6.95855e-26 	0.00160262 	-0.000158478 	2.37799e-25 	0.00159812 	-1.40195e-25 	0.00160034
3.22828 	0.00234106 	0.424476 	-0.00133248 	4.05894e-25 	0.00157831 	-0.000145621 	1.28023e-24 	0.00157301 	-1.34113e-25 	0.00157564
3.27576 	0.00234035 	0.425091 	-0.00132636 	1.69063e-25 	0.00155265 	-0.000131218 	5.03375e-25 	0.00154646 	-5.77572e-26 	0.00154954
3.32323 	0.00233954 	0.425671 	-0.00131928 	0 	0.00152588 	-0.00011664 	-4.42428e-26 	0.00151883 	1.58455e-26 	0.00152235
3.37071 	0.00233826 	0.426115 	-0.00131068 	1.03531e-24 	0.00149779 	-0.000102696 	3.41105e-24 	0.00148999 	1.23688e-25 	0.0014939
3.41818 	0.00233749 	0.426586 	-0.00130101 	5.44684e-25 	0.00146822 	-8.74776e-05 	1.78767e-24 	0.00145967 	2.64569e-25 	0.00146396
3.46566 	0.00233675 	0.427019 	-0.00129008 	-5.31744e-25 	0.00143744 	-7.17232e-05 	-1.54575e-24 	0.00142812 	3.16181e-25 	0.0014328
3.51313 	0.00233551 	0.427294 	-0.00127753 	-3.70481e-24 	0.00140624 	-5.6371e-05 	-1.06889e-23 	0.00139613 	1.22764e-25 	0.0014012
3.56061 	0.00233503 	0.427593 	-0.00126351 	-8.20859e-24 	0.00137298 	-3.93257e-05 	-2.35754e-23 	0.0013621 	-2.1929e-25 	0.00136755
3.60808 	0.00233417 	0.427762 	-0.00124738 	-5.90861e-24 	0.00133924 	-2.21128e-05 	-1.73067e-23 	0.00132758 	-2.98586e-25 	0.00133341
3.65556 	0.00233328 	0.427826 	-0.00122957 	2.43178e-24 	0.00130523 	-4.47144e-06 	5.83772e-24 	0.00129278 	-2.897e-25 	0.001299
3.70303 	0.00233288 	0.427848 	-0.00120969 	9.35893e-24 	0.00126948 	1.45702e-05 	2.5078e-23 	0.00125626 	-3.18617e-25 	0.00126287
3.75051 	0.00233173 	0.427646 	-0.00118734 	3.77838e-24 	0.00123545 	3.34101e-05 	1.02366e-23 	0.00122152 	-4.46283e-26 	0.00122848
3.79798 	0.00233151 	0.427388 	-0.00116227 	3.19726e-25 	0.0011991 	5.43689e-05 	8.55898e-25 	0.00118445 	2.84718e-25 	0.00119178
3.84545 	0.00233045 	0.426875 	-0.00113459 	0 	0.00116533 	7.50977e-05 	1.15132e-29 	0.00115007 	1.37012e-25 	0.0011577
3.89293 	0.0023302 	0.426238 	-0.00110374 	0 	0.0011302 	9.78489e-05 	4.69445e-31 	0.00111432 	5.4795e-27 	0.00112226
3.9404 	0.00232912 	0.425295 	-0.00107011 	0 	0.00109868 	0.000120445 	-2.88533e-30 	0.0010823 	-3.4553e-26 	0.00109049
3.98788 	0.00232892 	0.424144 	-0.00103227 	3.26345e-25 	0.00106634 	0.000145407 	6.45988e-25 	0.00104947 	-3.75178e-28 	0.0010579
4.03535 	0.00232807 	0.422588 	-0.000991136 	6.94935e-25 	0.00103905 	0.00017051 	1.38365e-24 	0.00102182 	9.77113e-27 	0.00103043
4.08283 	0.00232739 	0.420688 	-0.000945934 	-4.06185e-25 	0.00101387 	0.00019706 	-7.37731e-25 	0.000996344 	1.24899e-25 	0.0010051
4.1303 	0.00232702 	0.418352 	-0.000896093 	-7.09544e-25 	0.000992023 	0.000225262 	-1.28811e-24 	0.000974301 	2.00049e-25 	0.000983162
4.17778 	0.00232622 	0.415419 	-0.000842117 	-5.93957e-24 	0.000976556 	0.000254082 	-1.09621e-23 	0.000958806 	2.1776e-26 	0.00096768
4.22525 	0.0023253 	0.411867 	-0.000783772 	-1.4518e-24 	0.000966407 	0.000283963 	-2.66991e-24 	0.000948803 	-2.37991e-25 	0.000957605
4.27273 	0.00232453 	0.407518 	-0.000720201 	2.1507e-24 	0.000962391 	0.000315318 	3.87319e-24 	0.000945146 	-1.79247e-25 	0.000953768
4.3202 	0.00232376 	0.402182 	-0.000651695 	3.9515e-24 	0.000965488 	0.000347676 	6.47453e-24 	0.00094888 	-2.38385e-26 	0.000957183
4.36768 	0.00232278 	0.395631 	-0.000578858 	2.80809e-24 	0.000975963 	0.0003804 	4.22283e-24 	0.000960337 	1.44881e-25 	0.000968149
4.41515 	0.00232182 	0.387418 	-0.000501187 	-6.20477e-24 	0.00099373 	0.000413334 	-8.18112e-24 	0.000979501 	-2.01235e-26 	0.000986613
4.46263 	0.00232088 	0.376914 	-0.00041881 	1.39668e-23 	0.00101772 	0.000444938 	1.6704e-23 	0.00100539 	-1.29924e-25 	0.00101155
4.5101 	0.00231918 	0.36293 	-0.000334316 	-1.85925e-24 	0.00104419 	0.000472626 	-1.78938e-24 	0.00103419 	1.3042e-25 	0.00103919
4.55758 	0.00231789 	0.342698 	-0.000244725 	-2.66159e-24 	0.0010654 	0.000493598 	-1.78215e-24 	0.00105823 	-2.86711e-26 	0.00106181
4.60505 	0.00231631 	0.309076 	-0.000151941 	1.3793e-24 	0.00104178 	0.000483499 	5.69263e-25 	0.00103781 	6.51154e-26 	0.00103979
4.65253 	0.00231499 	0.233522 	-5.92334e-05 	9.22549e-25 	0.000728606 	0.000338362 	-5.21775e-26 	0.000727621 	-3.14662e-26 	0.000728114
4.7 	0.00231439 	0 	0 	0 	2.28339e-05 	0 	0 	2.28339e-05 	0 	2.28339e-05
