# U  POINT_DATA 1578
# x y z  U_x U_y U_z
26.4532 0.00976882 1.88755 1.0343e-17 -9.56177e-05 9.82191e-25
26.4363 0.0107131 -1.5576 1.67307e-17 -0.00010656 1.07103e-25
26.4363 0.0107131 1.5576 1.6794e-17 -0.00010656 1.07103e-25
26.4532 0.00976882 -1.27698 9.95701e-18 -9.56177e-05 9.82191e-25
26.4532 0.00976882 -1.88755 1.02457e-17 -9.56177e-05 9.82191e-25
26.4164 0.0124175 -1.88755 0 -0.000131098 -9.38863e-28
26.4164 0.0124175 -0.962 0 -0.000131098 -9.38863e-28
26.4164 0.0124175 1.88755 0 -0.000131098 -9.38863e-28
26.4347 0.0106374 1.88755 -3.1984e-18 -0.00010721 6.59767e-25
26.4347 0.0106374 -1.88755 -2.27682e-18 -0.00010721 6.59767e-25
26.4164 1.31472e-15 1.88755 0 0 0
26.4164 1.31472e-15 -1.88755 0 0 0
26.644 1.32612e-15 1.88755 8.5916e-35 1.35353e-35 -3.13684e-54
26.644 1.32612e-15 -1.88755 0 0 0
26.5413 0.0053617 2.77556e-17 -9.3778e-18 -4.01407e-05 7.27228e-24
26.2393 0.0325191 1.88755 -1.40282e-17 -0.00041834 -1.64128e-24
26.2273 0.0343571 -1.36248 -2.05998e-17 -0.000445604 -1.5554e-24
26.2273 0.0343571 1.36248 -2.04914e-17 -0.000445604 -1.5554e-24
26.2393 0.0325191 -1.15677 -1.40946e-17 -0.00041834 -1.64128e-24
26.2393 0.0325191 -1.88755 -1.47451e-17 -0.00041834 -1.64128e-24
26.1968 0.0391542 -1.88755 4.87891e-19 -0.000525186 -3.13499e-25
26.1968 0.0391542 0.00804666 -5.42101e-20 -0.000525186 -3.13499e-25
26.1968 0.0391542 1.88755 0 -0.000525186 -3.13499e-25
26.2263 0.0342943 1.88755 -1.89735e-17 -0.000446938 -1.89722e-24
26.2263 0.0342943 -1.88755 -1.92964e-17 -0.000446938 -1.89722e-24
26.333 0.0205717 1.88755 -2.56959e-17 -0.000239523 -2.33709e-24
26.333 0.0205717 0.45497 2.48642e-17 -0.000239523 -2.33709e-24
26.281 0.0270873 0.0570521 -3.77302e-17 -0.000332148 -4.34387e-25
26.333 0.0205717 -1.88755 -2.60209e-17 -0.000239523 -2.33709e-24
26.2866 0.0254616 1.88755 -3.03577e-18 -0.000312616 -5.09691e-25
26.2866 0.0254616 -1.88755 -1.73472e-18 -0.000312616 -5.09691e-25
26.3495 0.0172817 1.88755 2.84102e-17 -0.00019559 -1.3565e-24
26.3602 0.0178076 0 -1.43213e-17 -0.000198005 -1.47818e-24
26.3495 0.0172817 -1.88755 2.79724e-17 -0.00019559 -1.3565e-24
26.1968 1.30373e-15 1.88755 0 0 0
26.1968 1.30373e-15 -1.88755 0 0 0
25.9936 0.0765087 1.88755 -2.99268e-17 -0.00116328 3.01652e-24
25.9912 0.0770344 -1.77654 2.0756e-17 -0.0011722 3.24853e-24
25.9912 0.0770344 1.77654 2.09223e-17 -0.0011722 3.24853e-24
25.9936 0.0765087 -1.73332 3.20717e-17 -0.00116328 3.01652e-24
25.9936 0.0765087 -1.88755 -2.97885e-17 -0.00116328 3.01652e-24
25.985 0.0782506 -1.88755 -1.35525e-19 -0.00119457 2.8185e-24
25.985 0.0782506 -1.51967 -1.35525e-19 -0.00119457 2.8185e-24
25.985 0.0782506 1.88755 -1.35525e-19 -0.00119457 2.8185e-24
25.991 0.0770162 1.88755 2.98628e-17 -0.00117242 2.99967e-24
25.991 0.0770162 -1.88755 2.95716e-17 -0.00117242 2.99967e-24
26.0763 0.0603463 1.88755 -4.68651e-17 -0.000879068 0
26.0763 0.0603463 -0.260208 1.53357e-17 -0.000879068 0
26.0519 0.0654509 0 -1.04083e-17 -0.000963505 8.72546e-39
26.0763 0.0603463 -1.88755 -4.64039e-17 -0.000879068 0
26.0001 0.0753544 -1.61793 -3.40894e-17 -0.00114175 2.6418e-24
26.0001 0.0753544 1.61793 -3.42343e-17 -0.00114175 2.6418e-24
26.0495 0.0652717 1.88755 1.99691e-17 -0.000965875 4.50469e-25
26.0495 0.0652717 -1.88755 2.01662e-17 -0.000965875 4.50469e-25
26.1568 0.0457326 1.88755 -1.57347e-17 -0.00063054 1.20117e-24
26.1568 0.0457326 1.17514 -1.57209e-17 -0.00063054 1.20117e-24
26.1232 0.0521916 -0.073023 -1.3932e-17 -0.000734388 3.18455e-25
26.1568 0.0457326 -1.88755 -1.60462e-17 -0.00063054 1.20117e-24
26.1077 0.0542 1.88755 1.71666e-17 -0.000774703 -5.71703e-26
26.1077 0.0542 -1.88755 1.73472e-17 -0.000774703 -5.71703e-26
26.1667 0.0438535 1.88755 3.03577e-18 -0.000600487 1.13653e-24
26.1679 0.0439332 1.37341 1.10447e-19 -0.000599221 2.74776e-24
26.1667 0.0438535 -1.88755 3.25261e-18 -0.000600487 1.13653e-24
26.1679 0.0439332 -1.37341 -1.07709e-18 -0.000599221 2.74776e-24
25.985 1.29312e-15 1.88755 0 0 0
25.985 1.29312e-15 -1.88755 0 0 0
25.8119 0.114153 1.88755 -6.55904e-17 -0.00184167 -2.76848e-24
25.802 0.116438 -1.49315 1.45519e-17 -0.00188143 -2.19916e-24
25.802 0.116438 1.49315 1.44296e-17 -0.00188143 -2.19916e-24
25.8119 0.114153 -1.31018 -1.0842e-19 -0.00184167 -2.76848e-24
25.8119 0.114153 -1.88755 -6.54858e-17 -0.00184167 -2.76848e-24
25.7807 0.120752 -1.88755 -1.13841e-18 -0.00196269 -1.64346e-24
25.7807 0.120752 -0.748248 -1.13841e-18 -0.00196269 -1.64346e-24
25.7807 0.120752 1.88755 -1.13841e-18 -0.00196269 -1.64346e-24
25.8012 0.116354 1.88755 4.30109e-17 -0.00188221 -2.26257e-24
25.8012 0.116354 -1.88755 4.33681e-17 -0.00188221 -2.26257e-24
25.9061 0.0943839 1.88755 -1.26867e-17 -0.00148316 3.09859e-25
25.9061 0.0943839 0.42997 -1.40946e-17 -0.00148316 3.09859e-25
25.8563 0.10549 0.0777389 -4.06576e-19 -0.00167747 -4.68723e-24
25.9061 0.0943839 -1.88755 5.18249e-17 -0.00148316 3.09859e-25
25.8657 0.102617 1.88755 -4.38018e-17 -0.00163299 -1.00821e-24
25.8657 0.102617 -1.88755 2.12504e-17 -0.00163299 -1.00821e-24
25.929 0.0894852 1.88755 9.76292e-18 -0.00139587 1.56008e-24
25.931 0.0896596 0 -5.80638e-17 -0.00139406 3.56923e-24
25.929 0.0894852 -1.88755 9.75782e-18 -0.00139587 1.56008e-24
25.7807 1.28289e-15 1.88755 0 0 0
25.7807 1.28289e-15 -1.88755 0 0 0
25.5954 0.1602 1.88755 -5.69206e-18 -0.00268457 8.37658e-27
25.591 0.161206 -1.74559 -1.33357e-17 -0.00270223 1.1021e-38
25.591 0.161206 1.74559 -1.33086e-17 -0.00270223 1.1021e-38
25.5954 0.1602 -1.66204 -7.91468e-18 -0.00268457 8.37658e-27
25.5954 0.1602 -1.88755 -4.74338e-18 -0.00268457 8.37658e-27
25.5836 0.162676 -1.88755 -3.79471e-19 -0.00273026 2.12796e-25
25.5836 0.162676 -1.53805 -3.52366e-19 -0.00273026 2.12796e-25
25.5836 0.162676 1.88755 -3.79471e-19 -0.00273026 2.12796e-25
25.5907 0.161166 1.88755 -1.13028e-17 -0.00270249 2.78324e-27
25.5907 0.161166 -1.88755 -1.08359e-17 -0.00270249 2.78324e-27
25.7089 0.136018 1.88755 3.56675e-19 -0.00224096 -4.13303e-25
25.7089 0.136018 0.513353 4.33681e-19 -0.00224096 -4.13303e-25
25.6658 0.146105 0 3.64563e-17 -0.00241675 -4.73946e-25
25.7089 0.136018 -1.88755 5.42101e-19 -0.00224096 -4.13303e-25
25.6154 0.156292 -1.27742 1.28478e-17 -0.00260919 -2.8344e-40
25.6154 0.156292 1.27742 1.29548e-17 -0.00260919 -1.24778e-40
25.6626 0.145713 1.88755 -4.77049e-18 -0.00241975 -1.65615e-24
25.6626 0.145713 -1.88755 -4.87235e-18 -0.00241975 -1.65615e-24
25.7331 0.130743 1.88755 3.30533e-17 -0.00214532 4.55477e-25
25.7349 0.130938 1.0103 -4.59916e-17 -0.00214367 -2.02974e-24
25.7331 0.130743 -1.88755 3.29597e-17 -0.00214532 4.55477e-25
25.7349 0.130938 -1.0103 -4.54622e-17 -0.00214367 -2.02974e-24
25.5836 1.27302e-15 1.88755 0 0 0
25.5836 1.27302e-15 -1.88755 0 0 0
25.4685 0.186944 1.88755 3.04542e-17 -0.00317431 9.07274e-25
25.4381 0.19388 -1.00235 -7.18826e-17 -0.00329536 3.52283e-39
25.4381 0.19388 1.00235 -7.16658e-17 -0.00329536 3.52773e-39
25.4685 0.186944 -0.397452 3.11877e-17 -0.00317431 9.07274e-25
25.4685 0.186944 -1.88755 3.11166e-17 -0.00317431 9.07274e-25
25.3935 0.202514 -1.88755 -7.58942e-19 -0.00345954 9.29249e-26
25.3935 0.202514 0.0996787 -6.50521e-19 -0.00345954 9.29249e-26
25.3935 0.202514 1.88755 -6.50521e-19 -0.00345954 9.29249e-26
25.4362 0.193587 1.88755 4.92887e-18 -0.00329682 -5.20298e-25
25.4362 0.193587 -1.88755 4.77049e-18 -0.00329682 -5.20298e-25
25.5142 0.177181 1.88755 -1.02566e-16 -0.00299684 1.45942e-24
25.5169 0.177566 0 -3.47811e-17 -0.00299451 6.86433e-25
25.5142 0.177181 -1.88755 -1.02769e-16 -0.00299684 1.45942e-24
25.3935 1.2635e-15 1.88755 0 0 0
25.3935 1.2635e-15 -1.88755 0 0 0
25.326 0.216522 1.88755 -2.28767e-17 -0.00371342 5.34924e-25
25.326 0.216522 0.498541 -2.28767e-17 -0.00371342 5.34924e-25
25.2744 0.227993 0 -2.85687e-17 -0.00391147 7.55588e-24
25.326 0.216522 -1.88755 -2.29851e-17 -0.00371342 5.34924e-25
25.2101 0.239997 -1.88755 -1.0842e-19 -0.00413823 -1.43319e-24
25.2101 0.239997 0.821481 -1.0842e-19 -0.00413823 -1.43319e-24
25.2101 0.239997 1.88755 -6.17995e-17 -0.00413823 -1.43319e-24
25.2715 0.227478 1.88755 7.11732e-17 -0.00391319 -7.47728e-26
25.2715 0.227478 -1.88755 7.15573e-17 -0.00391319 -7.47728e-26
25.3554 0.210371 1.88755 5.23964e-17 -0.00360277 4.63481e-25
25.3569 0.210627 1.13511 4.29918e-17 -0.00360163 1.06158e-25
25.3554 0.210371 -1.88755 5.13912e-17 -0.00360277 4.63481e-25
25.3569 0.210627 -1.13511 4.29344e-17 -0.00360163 1.06158e-25
25.2101 1.25432e-15 1.88755 0 0 0
25.2101 1.25432e-15 -1.88755 0 0 0
25.1644 0.249234 1.88755 5.41641e-17 -0.00430315 -1.81736e-24
25.1644 0.249234 0.912772 5.40215e-17 -0.00430315 -1.81736e-24
25.1005 0.262987 -1.11022e-16 4.53197e-17 -0.00453677 -3.03282e-38
25.1644 0.249234 -1.88755 5.37764e-17 -0.00430315 -1.81736e-24
25.0332 0.27494 -1.88755 2.05998e-18 -0.00476012 0
25.0332 0.27494 0.794794 1.95156e-18 -0.00476012 0
25.0332 0.27494 1.88755 2.05998e-18 -0.00476012 0
25.0973 0.26233 1.88755 2.60906e-18 -0.00453791 -9.22264e-25
25.0973 0.26233 -1.88755 -6.4002e-17 -0.00453791 -9.22264e-25
25.1862 0.244807 1.88755 2.25743e-17 -0.00422477 -2.31061e-24
25.1872 0.245002 1.39909 -1.2079e-17 -0.00422421 -1.81598e-24
25.1862 0.244807 -1.88755 2.15756e-17 -0.00422477 -2.31061e-24
25.1872 0.245002 -1.39909 -1.16256e-17 -0.00422421 -1.81598e-24
25.0332 1.24546e-15 1.88755 0 0 0
25.0332 1.24546e-15 -1.88755 0 0 0
24.9796 0.285412 1.88755 7.77973e-18 -0.00494305 9.49035e-25
24.9796 0.285412 0.701139 8.02967e-18 -0.00494305 9.49035e-25
24.9174 0.298252 0 -1.8323e-17 -0.0051562 1.08186e-24
24.9796 0.285412 -1.88755 7.91468e-18 -0.00494305 9.49035e-25
24.8626 0.307411 -1.88755 -4.33681e-19 -0.00532453 3.02303e-24
24.8626 0.307411 0.188057 -6.50521e-19 -0.00532453 3.02303e-24
24.8626 0.307411 1.88755 -4.33681e-19 -0.00532453 3.02303e-24
24.9146 0.297599 1.88755 -1.30104e-18 -0.00515634 2.10007e-24
24.9146 0.297599 -1.88755 -1.34778e-18 -0.00515634 2.10007e-24
25.0075 0.279947 1.88755 4.35649e-17 -0.00484846 2.36578e-25
25.0087 0.280202 1.34379 5.37445e-17 -0.00484812 0
25.0075 0.279947 -1.88755 4.31512e-17 -0.00484846 2.36578e-25
25.0087 0.280202 -1.34379 5.37764e-17 -0.00484812 0
24.8626 1.23692e-15 1.88755 0 0 0
24.8626 1.23692e-15 -1.88755 0 0 0
24.7663 0.325423 1.88755 2.86229e-17 -0.00562979 3.95145e-24
24.7269 0.33318 -1.22588 -5.33427e-17 -0.00575455 3.00126e-24
24.7269 0.33318 1.22588 -5.31259e-17 -0.00575455 3.00126e-24
24.7663 0.325423 -0.320437 2.30913e-17 -0.00562979 3.95145e-24
24.7663 0.325423 -1.88755 2.86229e-17 -0.00562979 3.95145e-24
24.698 0.337664 -1.88755 -5.7788e-17 -0.00583497 1.68797e-24
24.698 0.337664 -0.843233 -5.76796e-17 -0.00583497 1.68797e-24
24.698 0.337664 1.88755 -3.25261e-19 -0.00583497 1.68797e-24
24.7253 0.33276 1.88755 -3.44776e-17 -0.00575403 2.8555e-24
24.7253 0.33276 -1.88755 -3.50216e-17 -0.00575403 2.8555e-24
24.8207 0.315226 1.88755 -2.40693e-17 -0.00545873 3.03127e-24
24.8227 0.315729 0.972828 -5.14145e-17 -0.0054588 7.41288e-24
24.8207 0.315226 -1.88755 -2.47817e-17 -0.00545873 3.03127e-24
24.8227 0.315729 -0.972828 -5.1546e-17 -0.0054588 7.41288e-24
24.698 1.22867e-15 1.88755 0 0 0
24.698 1.22867e-15 -1.88755 0 0 0
24.5692 0.361335 -1.17618 -7.33195e-18 -0.00621466 2.7127e-24
24.5393 0.365918 -1.88755 5.96311e-19 -0.00629503 -2.93345e-24
24.5692 0.361335 1.17618 -7.33762e-18 -0.00621466 2.7127e-24
24.5393 0.365918 1.56723 6.50521e-19 -0.00629503 -2.93345e-24
24.5393 0.365918 1.88755 5.96311e-19 -0.00629503 -2.93345e-24
24.6315 0.351137 -5.55112e-17 7.86047e-17 -0.00604254 9.71013e-24
24.6279 0.350115 1.88755 1.6611e-17 -0.00604097 -2.61978e-24
24.6279 0.350115 -1.88755 1.77809e-17 -0.00604097 -2.61978e-24
24.5393 1.22072e-15 1.88755 0 0 0
24.5393 1.22072e-15 -1.88755 0 0 0
24.518 0.369672 1.88755 -1.12783e-17 -0.00635441 -3.35185e-24
24.518 0.369672 1.36337 -1.12757e-17 -0.00635441 -3.35185e-24
24.4344 0.385088 0 -3.02492e-17 -0.00658525 -9.7264e-24
24.518 0.369672 -1.88755 -1.09504e-17 -0.00635441 -3.35185e-24
24.3861 0.391837 -1.88755 -1.73472e-18 -0.00669885 -1.922e-24
24.3861 0.391837 -0.177744 -1.51788e-18 -0.00669885 -1.922e-24
24.3861 0.391837 1.88755 4.33681e-18 -0.00669885 -1.922e-24
24.4315 0.384186 1.88755 -4.05492e-17 -0.00658274 -2.29963e-24
24.4315 0.384186 -1.88755 2.49366e-17 -0.00658274 -2.29963e-24
24.5312 0.367339 1.88755 -3.36103e-18 -0.00631795 -2.98684e-24
24.5316 0.367463 1.69903 -1.05637e-17 -0.00631817 -3.0174e-24
24.5312 0.367339 -1.88755 -3.90313e-18 -0.00631795 -2.98684e-24
24.5316 0.367463 -1.69903 -1.06495e-17 -0.00631817 -3.0174e-24
24.3861 1.21306e-15 1.88755 0 0 0
24.3861 1.21306e-15 -1.88755 0 0 0
24.2495 0.414927 -1.60354 3.38271e-17 -0.00703999 -3.56487e-24
24.2384 0.416452 -1.88755 -3.03577e-18 -0.00706491 -1.60081e-24
24.2495 0.414927 1.60354 3.48062e-17 -0.00703999 -3.56487e-24
24.2384 0.416452 1.72123 -3.03577e-18 -0.00706491 -1.60081e-24
24.2384 0.416452 1.88755 -3.06287e-18 -0.00706491 -1.60081e-24
24.3353 0.401783 0 -5.50777e-17 -0.00683825 -9.84784e-24
24.3323 0.400782 1.88755 4.94638e-18 -0.00683531 -1.14566e-25
24.3323 0.400782 -1.88755 4.98733e-18 -0.00683531 -1.14566e-25
24.2384 1.20566e-15 1.88755 0 0 0
24.2384 1.20566e-15 -1.88755 0 0 0
24.2253 0.418607 1.88755 -2.16381e-18 -0.00709576 -1.34978e-24
24.2253 0.418607 1.54131 -2.1684e-18 -0.00709576 -1.34978e-24
24.1362 0.43389 0 3.68629e-17 -0.00730208 9.30938e-24
24.2253 0.418607 -1.88755 -2.22261e-18 -0.00709576 -1.34978e-24
24.0959 0.438827 -1.88755 -1.0842e-18 -0.00737738 2.58246e-24
24.0959 0.438827 -0.477145 -1.0842e-18 -0.00737738 2.58246e-24
24.0959 0.438827 1.88755 4.98733e-18 -0.00737738 2.58246e-24
24.1336 0.432928 1.88755 5.75429e-17 -0.00729821 3.32263e-24
24.1336 0.432928 -1.88755 5.72459e-17 -0.00729821 3.32263e-24
24.2342 0.41715 1.88755 2.21976e-17 -0.00707521 -1.68545e-24
24.2344 0.417233 1.78149 -2.70885e-17 -0.00707546 -2.00379e-24
24.2342 0.41715 -1.88755 2.22261e-17 -0.00707521 -1.68545e-24
24.2344 0.417233 -1.78149 -2.73296e-17 -0.00707546 -2.00379e-24
24.0959 1.19852e-15 1.88755 0 0 0
24.0959 1.19852e-15 -1.88755 0 0 0
24.0212 0.452187 -0.0547029 5.01986e-17 -0.00754409 -5.38265e-24
23.9585 0.460071 -1.88755 2.1684e-18 -0.00765609 1.09918e-24
23.9585 0.460071 1.00476 2.60209e-18 -0.00765609 1.09918e-24
23.9585 0.460071 1.88755 2.60209e-18 -0.00765609 1.09918e-24
24.0341 0.448373 1.88755 5.63785e-18 -0.00750669 1.13015e-24
24.0341 0.448373 -1.88755 4.33681e-18 -0.00750669 1.13015e-24
23.9585 1.19164e-15 1.88755 0 0 0
23.9585 1.19164e-15 -1.88755 0 0 0
23.8757 0.472725 1.88755 6.32243e-18 -0.00781186 3.43448e-24
23.8388 0.47855 -1.52015 2.54369e-17 -0.00787909 5.04261e-24
23.8388 0.47855 1.52015 2.54447e-17 -0.00787909 5.04261e-24
23.8757 0.472725 -0.470502 6.30616e-18 -0.00781186 3.43448e-24
23.8757 0.472725 -1.88755 6.07153e-18 -0.00781186 3.43448e-24
23.8259 0.479895 -1.88755 6.07153e-18 -0.00789634 3.2498e-24
23.8259 0.479895 -1.43532 6.17995e-18 -0.00789634 3.2498e-24
23.8259 0.479895 1.88755 -7.58942e-19 -0.00789634 3.2498e-24
23.8379 0.478159 1.88755 1.34088e-17 -0.0078771 3.67217e-24
23.8379 0.478159 -1.88755 1.36609e-17 -0.0078771 3.67217e-24
23.9359 0.463512 1.88755 -4.16715e-18 -0.00770054 1.73371e-24
23.9373 0.464072 1.28383 1.97266e-17 -0.00770293 1.40823e-24
23.9359 0.463512 -1.88755 -6.03149e-17 -0.00770054 1.73371e-24
23.9373 0.464072 -1.28383 1.97325e-17 -0.00770293 1.40823e-24
23.8259 1.185e-15 1.88755 0 0 0
23.8259 1.185e-15 -1.88755 0 0 0
23.7426 0.493588 0 -1.88651e-17 -0.00804181 -3.10877e-26
23.8007 0.484525 1.14337 1.16049e-17 -0.00794356 2.57693e-24
23.8007 0.484525 -1.14337 1.10301e-17 -0.00794356 2.57693e-24
23.698 0.498086 -1.88755 -8.67362e-19 -0.00809523 -1.01732e-24
23.698 0.498086 -0.287825 -8.67362e-19 -0.00809523 -1.01732e-24
23.698 0.498086 1.88755 -8.67362e-19 -0.00809523 -1.01732e-24
23.7396 0.492169 1.88755 -2.42861e-17 -0.0080345 -1.41107e-24
23.7396 0.492169 -1.88755 -2.48104e-17 -0.0080345 -1.41107e-24
23.698 1.1786e-15 1.88755 0 0 0
23.698 1.1786e-15 -1.88755 0 0 0
23.6327 0.509316 -0.0372989 9.6765e-18 -0.00820224 -8.32892e-25
23.5746 0.51541 -1.88755 6.44016e-17 -0.00826615 -3.2516e-24
23.5746 0.51541 0.804943 4.77049e-17 -0.00826615 -3.2516e-24
23.5746 0.51541 1.88755 5.63785e-18 -0.00826615 -3.2516e-24
23.6429 0.505821 1.88755 -5.46438e-17 -0.00817609 -1.20811e-24
23.6429 0.505821 -1.88755 6.50521e-18 -0.00817609 -1.20811e-24
23.5746 1.17242e-15 1.88755 0 0 0
23.5746 1.17242e-15 -1.88755 0 0 0
23.4573 0.531745 -1.83545 2.76743e-17 -0.00840838 -2.00919e-24
23.4557 0.531899 -1.88755 -6.77626e-20 -0.00840987 -2.28304e-24
23.4573 0.531745 1.83545 2.75394e-17 -0.00840838 -2.00919e-24
23.4557 0.531899 1.8452 -6.77626e-20 -0.00840987 -2.28304e-24
23.4557 0.531899 1.88755 -6.77626e-20 -0.00840987 -2.28304e-24
23.5496 0.519986 1.09352 1.99484e-17 -0.00830629 1.33309e-24
23.5479 0.519111 1.88755 3.46945e-18 -0.00830168 -3.02882e-24
23.5479 0.519111 -1.88755 2.81893e-18 -0.00830168 -3.02882e-24
23.5496 0.519986 -1.09352 1.99493e-17 -0.00830629 1.33309e-24
23.4557 1.16646e-15 1.88755 0 0 0
23.4557 1.16646e-15 -1.88755 0 0 0
23.4507 0.53257 1.88755 -1.5748e-17 -0.00841505 -2.23589e-24
23.3624 0.544994 -1.17903 -1.12757e-17 -0.00850282 1.96689e-38
23.3624 0.544994 1.17903 -1.12757e-17 -0.00850282 1.98054e-38
23.4507 0.53257 1.72593 -1.67374e-17 -0.00841505 -2.23589e-24
23.4507 0.53257 -1.88755 -1.5599e-17 -0.00841505 -2.23589e-24
23.3409 0.546657 -1.88755 -6.50521e-18 -0.00851229 1.04742e-24
23.3409 0.546657 -1.08405 -6.07153e-18 -0.00851229 1.04742e-24
23.3409 0.546657 1.88755 -6.50521e-18 -0.00851229 1.04742e-24
23.3609 0.544091 1.88755 1.85367e-18 -0.00849743 5.84526e-27
23.3609 0.544091 -1.88755 2.1684e-18 -0.00849743 5.84526e-27
23.4546 0.532038 1.88755 -1.49349e-17 -0.00841108 -2.33818e-24
23.4547 0.532073 1.85617 -2.214e-17 -0.00841127 -2.29706e-24
23.4546 0.532038 -1.88755 -1.50615e-17 -0.00841108 -2.33818e-24
23.4547 0.532073 -1.85617 -2.28703e-17 -0.00841127 -2.29706e-24
23.3409 1.16071e-15 1.88755 0 0 0
23.3409 1.16071e-15 -1.88755 0 0 0
23.2302 0.560646 -1.88755 -2.1684e-18 -0.00858954 4.06699e-25
23.2302 0.560646 -0.286103 -1.73472e-18 -0.00858954 4.06699e-25
23.2896 0.555132 0.046401 1.41895e-17 -0.00856333 3.26652e-25
23.2302 0.560646 1.88755 -2.1684e-18 -0.00858954 4.06699e-25
23.2689 0.55574 1.88755 5.5305e-18 -0.00856707 3.45902e-24
23.2689 0.55574 -1.88755 1.99493e-17 -0.00856707 3.45902e-24
23.2302 1.15517e-15 1.88755 0 0 0
23.2302 1.15517e-15 -1.88755 0 0 0
23.1755 0.569996 -0.01522 1.24107e-17 -0.00863574 -5.33279e-25
23.1234 0.573938 -1.88755 -6.07153e-18 -0.00864282 -2.23053e-24
23.1234 0.573938 0.472156 -6.07153e-18 -0.00864282 -2.23053e-24
23.1234 0.573938 1.88755 -6.07153e-18 -0.00864282 -2.23053e-24
23.1789 0.567009 1.88755 -1.77809e-17 -0.0086202 -1.06653e-25
23.1789 0.567009 -1.88755 -1.67482e-17 -0.0086202 -1.06653e-25
23.1234 1.14982e-15 1.88755 0 0 0
23.1234 1.14982e-15 -1.88755 0 0 0
23.0415 0.585176 -1.11315 5.31259e-18 -0.0086742 -3.27922e-24
23.0203 0.586563 -1.88755 6.35342e-17 -0.00867254 -4.52742e-24
23.0415 0.585176 1.11315 5.47726e-18 -0.0086742 -3.27922e-24
23.0203 0.586563 1.19244 3.59955e-17 -0.00867254 -4.52742e-24
23.0203 0.586563 1.88755 6.44016e-17 -0.00867254 -4.52742e-24
23.0932 0.57935 0 -3.25261e-18 -0.00866533 -2.13877e-24
23.0909 0.577903 1.88755 5.60174e-17 -0.00865666 -3.52607e-24
23.0909 0.577903 -1.88755 5.72459e-17 -0.00865666 -3.52607e-24
23.0203 1.14466e-15 1.88755 0 0 0
23.0203 1.14466e-15 -1.88755 0 0 0
22.9213 0.598532 -1.87527 4.59465e-17 -0.00867909 -5.66349e-24
22.921 0.598552 -1.88755 1.17907e-17 -0.008679 -5.61442e-24
22.9213 0.598532 1.87527 -5.02737e-18 -0.00867909 -5.66349e-24
22.921 0.598552 1.87641 -2.25311e-18 -0.008679 -5.61442e-24
22.921 0.598552 1.88755 -2.25311e-18 -0.008679 -5.61442e-24
23.0059 0.589147 1.33974 4.82064e-17 -0.00868065 -7.20907e-24
23.0048 0.588425 1.88755 -2.21177e-17 -0.00867631 -4.90598e-24
23.0048 0.588425 -1.88755 -2.03678e-17 -0.00867631 -4.90598e-24
23.0059 0.589147 -1.33974 4.83554e-17 -0.00868065 -7.20907e-24
22.921 1.13969e-15 1.88755 0 0 0
22.921 1.13969e-15 -1.88755 0 0 0
22.9193 0.598747 1.88755 -1.18981e-17 -0.00867877 -5.58134e-24
22.8381 0.608635 -1.37758 -8.67362e-19 -0.00866302 8.8961e-25
22.8381 0.608635 1.37758 -8.67362e-19 -0.00866302 8.8961e-25
22.9193 0.598747 1.82274 -1.19025e-17 -0.00867877 -5.58134e-24
22.9193 0.598747 -1.88755 -2.65155e-17 -0.00867877 -5.58134e-24
22.8251 0.609196 -1.88755 7.22079e-17 -0.00865232 -2.55415e-24
22.8251 0.609196 -1.34853 3.92481e-17 -0.00865232 -2.55415e-24
22.8251 0.609196 1.88755 3.03577e-18 -0.00865232 -2.55415e-24
22.837 0.607864 1.88755 -3.29597e-17 -0.00865804 -2.2558e-24
22.837 0.607864 -1.88755 -3.29433e-17 -0.00865804 -2.2558e-24
22.9207 0.598592 1.8787 5.6384e-18 -0.00867908 -5.65485e-24
22.9207 0.598592 -1.8787 -1.21722e-17 -0.00867908 -5.65485e-24
22.8251 1.13489e-15 1.88755 0 0 0
22.8251 1.13489e-15 -1.88755 0 0 0
22.7574 0.618317 0 2.87314e-17 -0.00862977 -6.84403e-24
22.808 0.61226 1.19058 -1.60458e-17 -0.00865057 -6.15596e-24
22.808 0.61226 -1.19058 -1.6263e-17 -0.00865057 -6.15596e-24
22.7326 0.619282 -1.88755 3.46945e-18 -0.0086039 -1.80342e-24
22.7326 0.619282 -0.828218 3.46945e-18 -0.0086039 -1.80342e-24
22.7326 0.619282 1.88755 3.46945e-18 -0.0086039 -1.80342e-24
22.7554 0.616781 1.88755 -3.42608e-17 -0.00861988 -1.05401e-24
22.7554 0.616781 -1.88755 1.95156e-17 -0.00861988 -1.05401e-24
22.7326 1.13026e-15 1.88755 0 0 0
22.7326 1.13026e-15 -1.88755 0 0 0
22.6435 0.628849 -1.88755 7.80626e-18 -0.00853402 8.98269e-25
22.6435 0.628849 -0.334636 7.80626e-18 -0.00853402 8.98269e-25
22.6896 0.626343 0.0221264 -1.00628e-17 -0.00858612 -3.23865e-26
22.6435 0.628849 1.88755 7.37257e-18 -0.00853402 8.98269e-25
22.6759 0.625349 1.88755 -3.16587e-17 -0.00856446 -8.39238e-26
22.6759 0.625349 -1.88755 -1.52746e-17 -0.00856446 -8.39238e-26
22.6435 1.12579e-15 1.88755 0 0 0
22.6435 1.12579e-15 -1.88755 0 0 0
22.6003 0.636538 -0.00235708 -4.86908e-17 -0.00850784 -2.81566e-26
22.5574 0.637924 -1.88755 -8.67362e-19 -0.00844273 -8.02509e-25
22.5574 0.637924 0.133599 -8.67362e-19 -0.00844273 -8.02509e-25
22.5574 0.637924 1.88755 -8.67362e-19 -0.00844273 -8.02509e-25
22.5984 0.633577 1.88755 3.55071e-17 -0.00849157 2.82946e-26
22.5984 0.633577 -1.88755 3.55618e-17 -0.00849157 2.82946e-26
22.5574 1.12148e-15 1.88755 0 0 0
22.5574 1.12148e-15 -1.88755 0 0 0
22.5148 0.644753 -0.0176009 -3.12318e-17 -0.00839933 -4.98978e-24
22.4744 0.646535 -1.88755 9.1073e-18 -0.0083301 -9.90766e-25
22.4744 0.646535 0.577883 9.1073e-18 -0.0083301 -9.90766e-25
22.4744 0.646535 1.88755 9.1073e-18 -0.0083301 -9.90766e-25
22.5229 0.641476 1.88755 2.73464e-17 -0.00840102 -8.80161e-25
22.5229 0.641476 -1.88755 2.77556e-17 -0.00840102 -8.80161e-25
22.4744 1.11733e-15 1.88755 0 0 0
22.4744 1.11733e-15 -1.88755 0 0 0
22.4137 0.654305 -0.978625 5.48796e-18 -0.0082363 8.28706e-25
22.3944 0.654708 -1.88755 1.30104e-18 -0.00819626 1.59817e-24
22.4137 0.654305 0.978625 5.45426e-18 -0.0082363 8.28706e-25
22.3944 0.654708 0.999637 4.33681e-19 -0.00819626 1.59817e-24
22.3944 0.654708 1.88755 4.33681e-19 -0.00819626 1.59817e-24
22.4513 0.650759 0 3.69713e-17 -0.00830349 -6.51562e-25
22.4494 0.649058 1.88755 -5.63785e-18 -0.00829271 -5.6368e-25
22.4494 0.649058 -1.88755 -5.74848e-18 -0.00829271 -5.6368e-25
22.3944 1.11332e-15 1.88755 0 0 0
22.3944 1.11332e-15 -1.88755 0 0 0
22.3273 0.662308 -1.39171 -2.05877e-19 -0.00806556 3.98857e-24
22.3172 0.662473 -1.88755 -1.10589e-17 -0.00804144 2.93482e-24
22.3273 0.662308 1.39171 -2.81104e-19 -0.00806556 3.98857e-24
22.3172 0.662473 1.40032 -1.12757e-17 -0.00804144 2.93482e-24
22.3172 0.662473 1.88755 -9.97466e-18 -0.00804144 2.93482e-24
22.3792 0.657501 1.14357 3.39949e-17 -0.00817395 3.48699e-24
22.3779 0.656335 1.88755 3.25261e-18 -0.00816658 1.59819e-24
22.3779 0.656335 -1.88755 4.35899e-18 -0.00816658 1.59819e-24
22.3792 0.657501 -1.14357 3.42608e-17 -0.00817395 3.48699e-24
22.3172 1.10945e-15 1.88755 0 0 0
22.3172 1.10945e-15 -1.88755 0 0 0
22.2448 0.669834 -1.78014 -9.70139e-18 -0.0078718 2.90814e-24
22.2427 0.669858 -1.88755 1.40946e-18 -0.00786609 2.99692e-24
22.2448 0.669834 1.78014 -9.70333e-18 -0.0078718 2.90814e-24
22.2427 0.669858 1.78143 1.40946e-18 -0.00786609 2.99692e-24
22.2427 0.669858 1.88755 1.40946e-18 -0.00786609 2.99692e-24
22.3091 0.663968 1.47738 5.19683e-17 -0.00802683 2.45219e-24
22.3084 0.663322 1.88755 -5.83301e-17 -0.00802275 2.76501e-24
22.3084 0.663322 -1.88755 -5.82547e-17 -0.00802275 2.76501e-24
22.3091 0.663968 -1.47738 5.18249e-17 -0.00802683 2.45219e-24
22.2427 1.10572e-15 1.88755 0 0 0
22.2427 1.10572e-15 -1.88755 0 0 0
22.2216 0.671914 1.88755 3.50274e-17 -0.00780925 3.09072e-24
22.175 0.67658 -1.66989 1.77375e-18 -0.00768188 3.46403e-24
22.175 0.67658 1.66989 1.87607e-18 -0.00768188 3.46403e-24
22.2216 0.671914 0.782268 2.01888e-17 -0.00780925 3.09072e-24
22.2216 0.671914 -1.88755 2.02204e-17 -0.00780925 3.09072e-24
22.1708 0.676547 -1.88755 -8.34836e-18 -0.00766812 2.9423e-24
22.1708 0.676547 -1.6714 -8.5652e-18 -0.00766812 2.9423e-24
22.1708 0.676547 1.88755 7.58942e-18 -0.00766812 2.9423e-24
22.1746 0.676191 1.88755 8.81593e-18 -0.00767938 2.87766e-24
22.1746 0.676191 -1.88755 -3.9974e-17 -0.00767938 2.87766e-24
22.2408 0.670034 1.88755 1.96337e-17 -0.00786149 2.95951e-24
22.241 0.670176 1.79782 9.87526e-17 -0.00786239 2.93702e-24
22.2408 0.670034 -1.88755 1.97325e-17 -0.00786149 2.95951e-24
22.241 0.670176 -1.79782 9.87708e-17 -0.00786239 2.93702e-24
22.1708 1.10212e-15 1.88755 0 0 0
22.1708 1.10212e-15 -1.88755 0 0 0
22.1109 0.682912 1.37449 1.461e-18 -0.00748525 2.75858e-24
22.1661 0.677476 1.62811 5.50447e-17 -0.00765502 3.5384e-24
22.1109 0.682912 -1.37449 1.60762e-18 -0.00748525 2.75858e-24
22.1661 0.677476 -1.62811 3.81714e-17 -0.00765502 3.5384e-24
22.1015 0.682791 -1.88755 -4.98733e-18 -0.00745099 1.48779e-24
22.1015 0.682791 -1.38 -4.98733e-18 -0.00745099 1.48779e-24
22.1015 0.682791 1.88755 -4.98733e-18 -0.00745099 1.48779e-24
22.1102 0.681991 1.88755 -9.54098e-18 -0.0074794 1.30416e-24
22.1102 0.681991 -1.88755 -9.26432e-18 -0.0074794 1.30416e-24
22.1015 1.09865e-15 1.88755 0 0 0
22.1015 1.09865e-15 -1.88755 0 0 0
22.0488 0.68901 1.09001 1.09461e-17 -0.00727314 2.65474e-24
22.0908 0.684918 1.28092 2.13062e-17 -0.00741752 3.00735e-24
22.0488 0.68901 -1.09001 1.1144e-17 -0.00727314 2.65474e-24
22.0908 0.684918 -1.28092 2.07623e-17 -0.00741752 3.00735e-24
22.0347 0.688762 -1.88755 4.55365e-17 -0.00721726 -3.00954e-25
22.0347 0.688762 -1.10139 -1.01915e-17 -0.00721726 -3.00954e-25
22.0347 0.688762 1.88755 -1.0842e-18 -0.00721726 -3.00954e-25
22.0476 0.687571 1.88755 -5.63785e-18 -0.00726407 3.27522e-25
22.0476 0.687571 -1.88755 -6.07345e-18 -0.00726407 3.27522e-25
22.0347 1.0953e-15 1.88755 0 0 0
22.0347 1.0953e-15 -1.88755 0 0 0
21.9885 0.694891 0 3.90313e-18 -0.00704685 -3.53411e-24
22.0187 0.691978 0.951529 -7.63885e-18 -0.00716154 -3.12313e-24
22.0187 0.691978 -0.951529 -7.80626e-18 -0.00716154 -3.12313e-24
21.9702 0.694483 -1.88755 4.33681e-19 -0.00696859 -7.70557e-25
21.9702 0.694483 -0.834391 4.33681e-19 -0.00696859 -7.70557e-25
21.9702 0.694483 1.88755 4.33681e-19 -0.00696859 -7.70557e-25
21.987 0.69295 1.88755 -1.25767e-17 -0.00703471 -3.03075e-25
21.987 0.69295 -1.88755 3.29597e-17 -0.00703471 -3.03075e-25
21.9702 1.09208e-15 1.88755 0 0 0
21.9702 1.09208e-15 -1.88755 0 0 0
21.908 0.699994 -1.88755 8.67362e-18 -0.00670707 -5.05619e-25
21.908 0.699994 -0.57724 8.67362e-18 -0.00670707 -5.05619e-25
21.9398 0.699638 0.0146115 -1.56871e-18 -0.00684868 1.76802e-26
21.908 0.699994 1.88755 8.67362e-18 -0.00670707 -5.05619e-25
21.9282 0.698153 1.88755 1.11116e-17 -0.00679297 -9.83542e-25
21.9282 0.698153 -1.88755 1.17094e-17 -0.00679297 -9.83542e-25
21.908 1.08896e-15 1.88755 0 0 0
21.908 1.08896e-15 -1.88755 0 0 0
21.848 0.705345 -1.88755 8.67362e-18 -0.00643174 -3.07704e-24
21.848 0.705345 -0.327519 8.23994e-18 -0.00643174 -3.07704e-24
21.8784 0.705629 0.00748421 -1.16857e-17 -0.00658089 -9.90561e-25
21.848 0.705345 1.88755 8.67362e-18 -0.00643174 -3.07704e-24
21.8712 0.703215 1.88755 -4.85723e-17 -0.00653882 -8.40959e-24
21.8712 0.703215 -1.88755 1.47451e-17 -0.00653882 -8.40959e-24
21.848 1.73472e-15 1.88755 0 0 0
21.848 1.73472e-15 -1.88755 0 0 0
21.7876 0.710674 -1.88755 5.20417e-18 -0.00613805 -3.97605e-24
21.7876 0.710674 -0.0862661 5.63785e-18 -0.00613805 -3.97605e-24
21.8179 0.711545 0.000969263 -1.38244e-17 -0.00629735 -5.06188e-23
21.7876 0.710674 1.88755 4.33681e-18 -0.00613805 -3.97605e-24
21.8147 0.708225 1.88755 -1.25767e-17 -0.00626951 -1.75491e-23
21.8147 0.708225 -1.88755 -1.14125e-17 -0.00626951 -1.75491e-23
21.7876 0.000188157 1.88755 0 0 0
21.7876 0.000188157 -1.88755 0 0 0
21.7573 0.716673 -0.00345105 -3.53026e-17 -0.00599094 2.85344e-24
21.7273 0.716049 -1.88755 9.97466e-18 -0.00582492 5.09109e-23
21.7273 0.716049 0.142274 8.23994e-18 -0.00582492 5.09109e-23
21.7273 0.716049 1.88755 8.67362e-18 -0.00582492 5.09109e-23
21.7578 0.713268 1.88755 3.45023e-17 -0.0059828 5.89191e-23
21.7578 0.713268 -1.88755 3.42608e-17 -0.0059828 5.89191e-23
21.7272 0.00075262 1.88755 0 0 0
21.7272 0.00075262 -1.88755 0 0 0
21.6967 0.721676 -0.00685488 -8.53606e-17 -0.00566645 2.61985e-24
21.6669 0.721444 -1.88755 1.34441e-17 -0.00549476 1.34512e-22
21.6669 0.721444 0.356969 1.38778e-17 -0.00549476 1.34512e-22
21.6669 0.721444 1.88755 1.47451e-17 -0.00549476 1.34512e-22
21.7008 0.718357 1.88755 5.03876e-17 -0.00567907 1.57331e-22
21.7008 0.718357 -1.88755 -5.49496e-17 -0.00567907 1.57331e-22
21.6668 0.00169337 1.88755 0 0 0
21.6668 0.00169337 -1.88755 0 0 0
21.6363 0.726736 -0.00962321 1.83874e-17 -0.00532634 2.88674e-22
21.6065 0.72688 -1.88755 3.9465e-17 -0.00514951 1.20901e-22
21.6065 0.72688 0.558842 -1.9082e-17 -0.00514951 1.20901e-22
21.6065 0.72688 1.88755 3.81639e-17 -0.00514951 1.20901e-22
21.6436 0.72349 1.88755 2.45211e-17 -0.00536001 1.33717e-22
21.6436 0.72349 -1.88755 2.47198e-17 -0.00536001 1.33717e-22
21.6063 0.00301036 1.88755 0 0 0
21.6063 0.00301036 -1.88755 0 0 0
21.5758 0.73186 -0.0118125 -4.16672e-17 -0.00497242 -2.51758e-22
21.5462 0.732364 -1.88755 4.77049e-18 -0.00479108 6.93562e-23
21.5462 0.732364 0.748244 4.77049e-18 -0.00479108 6.93562e-23