# p  POINT_DATA 994
# x y z  p
76.848 3.84014e-15 1.88755 0.000196605
76.848 3.84014e-15 -1.88755 0.000196605
77.848 3.89022e-15 -1.88755 0.000196605
77.848 3.89022e-15 1.88755 0.000196605
75.8596 3.79065e-15 1.88755 0.000247389
75.8596 3.79065e-15 -1.88755 0.000247389
74.8826 3.74172e-15 1.88755 0.000498234
74.8826 3.74172e-15 -1.88755 0.000498234
73.9169 3.69337e-15 1.88755 0.000654612
73.9169 3.69337e-15 -1.88755 0.000654612
72.9624 3.64557e-15 1.88755 0.000839774
72.9624 3.64557e-15 -1.88755 0.000839774
72.019 3.59833e-15 1.88755 0.00100607
72.019 3.59833e-15 -1.88755 0.00100607
71.0865 3.55163e-15 1.88755 0.00117275
71.0865 3.55163e-15 -1.88755 0.00117275
70.1648 3.50547e-15 1.88755 0.00133302
70.1648 3.50547e-15 -1.88755 0.00133302
69.2537 3.45985e-15 1.88755 0.00148933
69.2537 3.45985e-15 -1.88755 0.00148933
68.3532 3.41476e-15 1.88755 0.0016411
68.3532 3.41476e-15 -1.88755 0.0016411
67.4632 3.37019e-15 1.88755 0.0017883
67.4632 3.37019e-15 -1.88755 0.0017883
66.5834 3.32613e-15 1.88755 0.00193108
66.5834 3.32613e-15 -1.88755 0.00193108
65.7138 3.28259e-15 1.88755 0.00206908
65.7138 3.28259e-15 -1.88755 0.00206908
64.8543 3.23955e-15 1.88755 0.00220241
64.8543 3.23955e-15 -1.88755 0.00220241
64.0048 3.19701e-15 1.88755 0.00233073
64.0048 3.19701e-15 -1.88755 0.00233073
63.1651 3.15496e-15 1.88755 0.00245417
63.1651 3.15496e-15 -1.88755 0.00245417
62.3351 3.11339e-15 1.88755 0.00257244
62.3351 3.11339e-15 -1.88755 0.00257244
61.5147 3.07231e-15 1.88755 0.00268545
61.5147 3.07231e-15 -1.88755 0.00268545
60.7038 3.03171e-15 1.88755 0.00279276
60.7038 3.03171e-15 -1.88755 0.00279276
59.9024 2.99157e-15 1.88755 0.0028946
59.9024 2.99157e-15 -1.88755 0.0028946
59.1102 2.9519e-15 1.88755 0.00299064
59.1102 2.9519e-15 -1.88755 0.00299064
58.3271 2.91269e-15 1.88755 0.00308071
58.3271 2.91269e-15 -1.88755 0.00308071
57.5532 2.87393e-15 1.88755 0.00316446
57.5532 2.87393e-15 -1.88755 0.00316446
56.7882 2.83562e-15 1.88755 0.00324189
56.7882 2.83562e-15 -1.88755 0.00324189
56.032 2.79776e-15 1.88755 0.00331262
56.032 2.79776e-15 -1.88755 0.00331262
55.2846 2.76033e-15 1.88755 0.00337634
55.2846 2.76033e-15 -1.88755 0.00337634
54.5459 2.72334e-15 1.88755 0.00343287
54.5459 2.72334e-15 -1.88755 0.00343287
53.8157 2.68678e-15 1.88755 0.00348185
53.8157 2.68678e-15 -1.88755 0.00348185
53.094 2.65063e-15 1.88755 0.00352293
53.094 2.65063e-15 -1.88755 0.00352293
52.3806 2.61491e-15 1.88755 0.00355569
52.3806 2.61491e-15 -1.88755 0.00355569
51.6755 2.5796e-15 1.88755 0.00358004
51.6755 2.5796e-15 -1.88755 0.00358004
50.9785 2.5447e-15 1.88755 0.00359525
50.9785 2.5447e-15 -1.88755 0.00359525
50.2897 2.51021e-15 1.88755 0.00360096
50.2897 2.51021e-15 -1.88755 0.00360096
49.6088 2.47611e-15 1.88755 0.00359657
49.6088 2.47611e-15 -1.88755 0.00359657
48.9358 2.44241e-15 1.88755 0.00358191
48.9358 2.44241e-15 -1.88755 0.00358191
48.2705 2.4091e-15 1.88755 0.0035561
48.2705 2.4091e-15 -1.88755 0.0035561
47.613 2.37617e-15 1.88755 0.00351861
47.613 2.37617e-15 -1.88755 0.00351861
46.9631 2.34362e-15 1.88755 0.00346865
46.9631 2.34362e-15 -1.88755 0.00346865
46.3207 2.31146e-15 1.88755 0.00340575
46.3207 2.31146e-15 -1.88755 0.00340575
45.6858 2.27966e-15 1.88755 0.00332904
45.6858 2.27966e-15 -1.88755 0.00332904
45.0582 2.24823e-15 1.88755 0.00323761
45.0582 2.24823e-15 -1.88755 0.00323761
44.4379 2.21717e-15 1.88755 0.0031305
44.4379 2.21717e-15 -1.88755 0.0031305
43.8248 2.18647e-15 1.88755 0.00300688
43.8248 2.18647e-15 -1.88755 0.00300688
43.2187 2.15612e-15 1.88755 0.00286552
43.2187 2.15612e-15 -1.88755 0.00286552
42.6197 2.12612e-15 1.88755 0.00270529
42.6197 2.12612e-15 -1.88755 0.00270529
42.0276 2.09647e-15 1.88755 0.0025249
42.0276 2.09647e-15 -1.88755 0.0025249
41.4424 2.06717e-15 1.88755 0.00232312
41.4424 2.06717e-15 -1.88755 0.00232312
40.8639 2.0382e-15 1.88755 0.00209841
40.8639 2.0382e-15 -1.88755 0.00209841
40.2922 2.00957e-15 1.88755 0.00184986
40.2922 2.00957e-15 -1.88755 0.00184986
39.727 1.98127e-15 1.88755 0.00157657
39.727 1.98127e-15 -1.88755 0.00157657
39.1685 1.9533e-15 1.88755 0.0012772
39.1685 1.9533e-15 -1.88755 0.0012772
38.6163 1.92565e-15 1.88755 0.00094923
38.6163 1.92565e-15 -1.88755 0.00094923
38.0706 1.89832e-15 1.88755 0.000589801
38.0706 1.89832e-15 -1.88755 0.000589801
37.5312 1.87131e-15 1.88755 0.000195491
37.5312 1.87131e-15 -1.88755 0.000195491
36.998 1.84461e-15 1.88755 -0.000236936
36.998 1.84461e-15 -1.88755 -0.000236936
36.4711 1.81822e-15 1.88755 -0.000710673
36.4711 1.81822e-15 -1.88755 -0.000710673
35.9502 1.79214e-15 1.88755 -0.00122868
35.9502 1.79214e-15 -1.88755 -0.00122868
35.4353 1.76636e-15 1.88755 -0.00179489
35.4353 1.76636e-15 -1.88755 -0.00179489
34.9264 1.74087e-15 1.88755 -0.00241341
34.9264 1.74087e-15 -1.88755 -0.00241341
34.4234 1.71568e-15 1.88755 -0.00308933
34.4234 1.71568e-15 -1.88755 -0.00308933
33.9204 1.6905e-15 1.88755 -0.00383052
33.9204 1.6905e-15 -1.88755 -0.00383052
33.4352 1.6662e-15 1.88755 -0.00463448
33.4352 1.6662e-15 -1.88755 -0.00463448
32.9672 1.64276e-15 1.88755 -0.00548922
32.9672 1.64276e-15 -1.88755 -0.00548922
32.5157 1.62016e-15 1.88755 -0.00639499
32.5157 1.62016e-15 -1.88755 -0.00639499
32.0803 1.59835e-15 1.88755 -0.0073522
32.0803 1.59835e-15 -1.88755 -0.0073522
31.6602 1.57731e-15 1.88755 -0.00836096
31.6602 1.57731e-15 -1.88755 -0.00836096
31.255 1.55702e-15 1.88755 -0.00942103
31.255 1.55702e-15 -1.88755 -0.00942103
30.8642 1.53745e-15 1.88755 -0.010532
30.8642 1.53745e-15 -1.88755 -0.010532
30.4871 1.51857e-15 1.88755 -0.0116927
30.4871 1.51857e-15 -1.88755 -0.0116927
30.1235 1.50036e-15 1.88755 -0.0129023
30.1235 1.50036e-15 -1.88755 -0.0129023
29.7727 1.48279e-15 1.88755 -0.014159
29.7727 1.48279e-15 -1.88755 -0.014159
29.4343 1.46585e-15 1.88755 -0.0154609
29.4343 1.46585e-15 -1.88755 -0.0154609
29.1079 1.4495e-15 1.88755 -0.0168058
29.1079 1.4495e-15 -1.88755 -0.0168058
28.793 1.43374e-15 1.88755 -0.0181912
28.793 1.43374e-15 -1.88755 -0.0181912
28.4893 1.41853e-15 1.88755 -0.0196142
28.4893 1.41853e-15 -1.88755 -0.0196142
28.1964 1.40386e-15 1.88755 -0.0210717
28.1964 1.40386e-15 -1.88755 -0.0210717
27.9138 1.38971e-15 1.88755 -0.0225603
27.9138 1.38971e-15 -1.88755 -0.0225603
27.6412 1.37606e-15 1.88755 -0.0240766
27.6412 1.37606e-15 -1.88755 -0.0240766
27.3783 1.36289e-15 1.88755 -0.025617
27.3783 1.36289e-15 -1.88755 -0.025617
27.1246 1.35019e-15 1.88755 -0.0271776
27.1246 1.35019e-15 -1.88755 -0.0271776
26.88 1.33794e-15 1.88755 -0.0287547
26.88 1.33794e-15 -1.88755 -0.0287547
26.644 1.32612e-15 1.88755 -0.0303445
26.644 1.32612e-15 -1.88755 -0.0303445
26.4164 1.31472e-15 1.88755 -0.0319432
26.4164 1.31472e-15 -1.88755 -0.0319432
26.1968 1.30373e-15 1.88755 -0.0335469
26.1968 1.30373e-15 -1.88755 -0.0335469
25.985 1.29312e-15 1.88755 -0.0351521
25.985 1.29312e-15 -1.88755 -0.0351521
25.7807 1.28289e-15 1.88755 -0.0367552
25.7807 1.28289e-15 -1.88755 -0.0367552
25.5836 1.27302e-15 1.88755 -0.0383528
25.5836 1.27302e-15 -1.88755 -0.0383528
25.3935 1.2635e-15 1.88755 -0.0399416
25.3935 1.2635e-15 -1.88755 -0.0399416
25.2101 1.25432e-15 1.88755 -0.0415187
25.2101 1.25432e-15 -1.88755 -0.0415187
25.0332 1.24546e-15 1.88755 -0.043081
25.0332 1.24546e-15 -1.88755 -0.043081
24.8626 1.23692e-15 1.88755 -0.044626
24.8626 1.23692e-15 -1.88755 -0.044626
24.698 1.22867e-15 1.88755 -0.0461512
24.698 1.22867e-15 -1.88755 -0.0461512
24.5393 1.22072e-15 1.88755 -0.0476544
24.5393 1.22072e-15 -1.88755 -0.0476544
24.3861 1.21306e-15 1.88755 -0.0491334
24.3861 1.21306e-15 -1.88755 -0.0491334
24.2384 1.20566e-15 1.88755 -0.0505865
24.2384 1.20566e-15 -1.88755 -0.0505865
24.0959 1.19852e-15 1.88755 -0.0520119
24.0959 1.19852e-15 -1.88755 -0.0520119
23.9585 1.19164e-15 1.88755 -0.0534083
23.9585 1.19164e-15 -1.88755 -0.0534083
23.8259 1.185e-15 1.88755 -0.0547744
23.8259 1.185e-15 -1.88755 -0.0547744
23.698 1.1786e-15 1.88755 -0.056109
23.698 1.1786e-15 -1.88755 -0.056109
23.5746 1.17242e-15 1.88755 -0.0574113
23.5746 1.17242e-15 -1.88755 -0.0574113
23.4557 1.16646e-15 1.88755 -0.0586803
23.4557 1.16646e-15 -1.88755 -0.0586803
23.3409 1.16071e-15 1.88755 -0.0599155
23.3409 1.16071e-15 -1.88755 -0.0599155
23.2302 1.15517e-15 1.88755 -0.0611162
23.2302 1.15517e-15 -1.88755 -0.0611162
23.1234 1.14982e-15 1.88755 -0.0622821
23.1234 1.14982e-15 -1.88755 -0.0622821
23.0203 1.14466e-15 1.88755 -0.0634129
23.0203 1.14466e-15 -1.88755 -0.0634129
22.921 1.13969e-15 1.88755 -0.0645081
22.921 1.13969e-15 -1.88755 -0.0645081
22.8251 1.13489e-15 1.88755 -0.0655677
22.8251 1.13489e-15 -1.88755 -0.0655677
22.7326 1.13026e-15 1.88755 -0.0665914
22.7326 1.13026e-15 -1.88755 -0.0665914
22.6435 1.12579e-15 1.88755 -0.0675791
22.6435 1.12579e-15 -1.88755 -0.0675791
22.5574 1.12148e-15 1.88755 -0.0685306
22.5574 1.12148e-15 -1.88755 -0.0685306
22.4744 1.11733e-15 1.88755 -0.0694458
22.4744 1.11733e-15 -1.88755 -0.0694458
22.3944 1.11332e-15 1.88755 -0.0703244
22.3944 1.11332e-15 -1.88755 -0.0703244
22.3172 1.10945e-15 1.88755 -0.071166
22.3172 1.10945e-15 -1.88755 -0.071166
22.2427 1.10572e-15 1.88755 -0.0719702
22.2427 1.10572e-15 -1.88755 -0.0719702
22.1708 1.10212e-15 1.88755 -0.0727362
22.1708 1.10212e-15 -1.88755 -0.0727362
22.1015 1.09865e-15 1.88755 -0.0734629
22.1015 1.09865e-15 -1.88755 -0.0734629
22.0347 1.0953e-15 1.88755 -0.0741487
22.0347 1.0953e-15 -1.88755 -0.0741487
21.9702 1.09208e-15 1.88755 -0.0747915
21.9702 1.09208e-15 -1.88755 -0.0747915
21.908 1.08896e-15 1.88755 -0.0753874
21.908 1.08896e-15 -1.88755 -0.0753874
21.848 1.73472e-15 1.88755 -0.0759341
21.848 1.73472e-15 -1.88755 -0.0759341
21.7876 0.000188157 1.88755 -0.0764226
21.7876 0.000188157 -1.88755 -0.0764226
21.7272 0.00075262 1.88755 -0.0768895
21.7272 0.00075262 -1.88755 -0.0768895
21.6668 0.00169337 1.88755 -0.0773791
21.6668 0.00169337 -1.88755 -0.0773791
21.6063 0.00301036 1.88755 -0.0778807
21.6063 0.00301036 -1.88755 -0.0778807
21.546 0.00470355 1.88755 -0.078384
21.546 0.00470355 -1.88755 -0.078384
21.4856 0.00677288 1.88755 -0.0788872
21.4856 0.00677288 -1.88755 -0.0788872
21.4252 0.00921825 1.88755 -0.0793894
21.4252 0.00921825 -1.88755 -0.0793894
21.3649 0.0120396 1.88755 -0.0798891
21.3649 0.0120396 -1.88755 -0.0798891
21.3045 0.0152368 1.88755 -0.0803853
21.3045 0.0152368 -1.88755 -0.0803853
21.2442 0.0188097 1.88755 -0.080877
21.2442 0.0188097 -1.88755 -0.080877
21.1839 0.0227581 1.88755 -0.0813637
21.1839 0.0227581 -1.88755 -0.0813637
21.1237 0.0270821 1.88755 -0.081845
21.1237 0.0270821 -1.88755 -0.081845
21.0634 0.0317812 1.88755 -0.0823206
21.0634 0.0317812 -1.88755 -0.0823206
21.0032 0.0368555 1.88755 -0.0827905
21.0032 0.0368555 -1.88755 -0.0827905
20.9431 0.0423046 1.88755 -0.0832545
20.9431 0.0423046 -1.88755 -0.0832545
20.8829 0.0481284 1.88755 -0.0837127
20.8829 0.0481284 -1.88755 -0.0837127
20.8228 0.0543267 1.88755 -0.0841653
20.8228 0.0543267 -1.88755 -0.0841653
20.7628 0.0608992 1.88755 -0.0846125
20.7628 0.0608992 -1.88755 -0.0846125
20.7027 0.0678456 1.88755 -0.0850547
20.7027 0.0678456 -1.88755 -0.0850547
20.6428 0.0751657 1.88755 -0.0854924
20.6428 0.0751657 -1.88755 -0.0854924
20.5828 0.0828592 1.88755 -0.0859264
20.5828 0.0828592 -1.88755 -0.0859264
20.523 0.0909258 1.88755 -0.0863577
20.523 0.0909258 -1.88755 -0.0863577
20.4631 0.0993652 1.88755 -0.0867877
20.4631 0.0993652 -1.88755 -0.0867877
20.4034 0.108177 1.88755 -0.0872183
20.4034 0.108177 -1.88755 -0.0872183
20.3437 0.117361 1.88755 -0.0876518
20.3437 0.117361 -1.88755 -0.0876518
20.284 0.126917 1.88755 -0.0880914
20.284 0.126917 -1.88755 -0.0880914
20.2244 0.136844 1.88755 -0.0885427
20.2244 0.136844 -1.88755 -0.0885427
20.1649 0.147142 1.88755 -0.0890095
20.1649 0.147142 -1.88755 -0.0890095
20.1058 0.157553 1.88755 -0.0895146
20.1058 0.157553 -1.88755 -0.0895146
20.0454 0.168194 1.88755 -0.0900377
20.0454 0.168194 -1.88755 -0.0900377
19.9837 0.17907 1.88755 -0.0905356
19.9837 0.17907 -1.88755 -0.0905356
19.9206 0.190185 1.88755 -0.0910173
19.9206 0.190185 -1.88755 -0.0910173
19.8561 0.201547 1.88755 -0.0914941
19.8561 0.201547 -1.88755 -0.0914941
19.7902 0.213159 1.88755 -0.0919684
19.7902 0.213159 -1.88755 -0.0919684
19.7228 0.225027 1.88755 -0.0924417
19.7228 0.225027 -1.88755 -0.0924417
19.654 0.237157 1.88755 -0.0929163
19.654 0.237157 -1.88755 -0.0929163
19.5836 0.249555 1.88755 -0.0933945
19.5836 0.249555 -1.88755 -0.0933945
19.5117 0.262227 1.88755 -0.0938781
19.5117 0.262227 -1.88755 -0.0938781
19.4382 0.275178 1.88755 -0.0943687
19.4382 0.275178 -1.88755 -0.0943687
19.363 0.288415 1.88755 -0.0948676
19.363 0.288415 -1.88755 -0.0948676
19.2863 0.301945 1.88755 -0.0953763
19.2863 0.301945 -1.88755 -0.0953763
19.2078 0.315773 1.88755 -0.0958959
19.2078 0.315773 -1.88755 -0.0958959
19.1276 0.329906 1.88755 -0.0964275
19.1276 0.329906 -1.88755 -0.0964275
19.0456 0.344351 1.88755 -0.0969721
19.0456 0.344351 -1.88755 -0.0969721
18.9618 0.359115 1.88755 -0.0975305
18.9618 0.359115 -1.88755 -0.0975305
18.8761 0.374205 1.88755 -0.0981035
18.8761 0.374205 -1.88755 -0.0981035
18.7886 0.389628 1.88755 -0.098692
18.7886 0.389628 -1.88755 -0.098692
18.6991 0.405391 1.88755 -0.0992966
18.6991 0.405391 -1.88755 -0.0992966
18.6077 0.421503 1.88755 -0.0999182
18.6077 0.421503 -1.88755 -0.0999182
18.5142 0.43797 1.88755 -0.100557
18.5142 0.43797 -1.88755 -0.100557
18.4187 0.4548 1.88755 -0.101215
18.4187 0.4548 -1.88755 -0.101215
18.3211 0.472002 1.88755 -0.101891
18.3211 0.472002 -1.88755 -0.101891
18.2213 0.489584 1.88755 -0.102587
18.2213 0.489584 -1.88755 -0.102587
18.1193 0.507553 1.88755 -0.103303
18.1193 0.507553 -1.88755 -0.103303
18.015 0.52592 1.88755 -0.104041
18.015 0.52592 -1.88755 -0.104041
17.9085 0.544691 1.88755 -0.1048
17.9085 0.544691 -1.88755 -0.1048
17.7996 0.563878 1.88755 -0.105581
17.7996 0.563878 -1.88755 -0.105581
17.6883 0.583487 1.88755 -0.106386
17.6883 0.583487 -1.88755 -0.106386
17.5746 0.60353 1.88755 -0.107215
17.5746 0.60353 -1.88755 -0.107215
17.4583 0.624014 1.88755 -0.108069
17.4583 0.624014 -1.88755 -0.108069
17.3395 0.644951 1.88755 -0.108948
17.3395 0.644951 -1.88755 -0.108948
17.218 0.66635 1.88755 -0.109854
17.218 0.66635 -1.88755 -0.109854
17.0939 0.688222 1.88755 -0.110788
17.0939 0.688222 -1.88755 -0.110788
16.967 0.710576 1.88755 -0.111751
16.967 0.710576 -1.88755 -0.111751
16.8373 0.733423 1.88755 -0.112745
16.8373 0.733423 -1.88755 -0.112745
16.7048 0.756775 1.88755 -0.113769
16.7048 0.756775 -1.88755 -0.113769
16.5693 0.780643 1.88755 -0.114826
16.5693 0.780643 -1.88755 -0.114826
16.4309 0.805037 1.88755 -0.115918
16.4309 0.805037 -1.88755 -0.115918
16.2894 0.829969 1.88755 -0.117046
16.2894 0.829969 -1.88755 -0.117046
16.1447 0.855452 1.88755 -0.118211
16.1447 0.855452 -1.88755 -0.118211
15.9969 0.881498 1.88755 -0.119415
15.9969 0.881498 -1.88755 -0.119415
15.8458 0.908118 1.88755 -0.12066
15.8458 0.908118 -1.88755 -0.12066
15.6914 0.935326 1.88755 -0.12195
15.6914 0.935326 -1.88755 -0.12195
15.5336 0.963134 1.88755 -0.123285
15.5336 0.963134 -1.88755 -0.123285
15.3722 0.991557 1.88755 -0.124668
15.3722 0.991557 -1.88755 -0.124668
15.2074 1.02061 1.88755 -0.126102
15.2074 1.02061 -1.88755 -0.126102
15.0389 1.0503 1.88755 -0.12759
15.0389 1.0503 -1.88755 -0.12759
14.8666 1.08064 1.88755 -0.129136
14.8666 1.08064 -1.88755 -0.129136
14.6906 1.11166 1.88755 -0.130742
14.6906 1.11166 -1.88755 -0.130742
14.5107 1.14336 1.88755 -0.132412
14.5107 1.14336 -1.88755 -0.132412
14.3268 1.17576 1.88755 -0.134151
14.3268 1.17576 -1.88755 -0.134151
14.1388 1.20888 1.88755 -0.135963
14.1388 1.20888 -1.88755 -0.135963
13.9467 1.24272 1.88755 -0.137853
13.9467 1.24272 -1.88755 -0.137853
13.7504 1.27731 1.88755 -0.139826
13.7504 1.27731 -1.88755 -0.139826
13.5497 1.31267 1.88755 -0.141889
13.5497 1.31267 -1.88755 -0.141889
13.3446 1.34881 1.88755 -0.144048
13.3446 1.34881 -1.88755 -0.144048
13.135 1.38574 1.88755 -0.146311
13.135 1.38574 -1.88755 -0.146311
12.9207 1.42349 1.88755 -0.148686
12.9207 1.42349 -1.88755 -0.148686
12.7017 1.46208 1.88755 -0.151181
12.7017 1.46208 -1.88755 -0.151181
12.4779 1.50151 1.88755 -0.153809
12.4779 1.50151 -1.88755 -0.153809
12.2491 1.54182 1.88755 -0.15658
12.2491 1.54182 -1.88755 -0.15658
12.0153 1.58301 1.88755 -0.159508
12.0153 1.58301 -1.88755 -0.159508
11.7763 1.62512 1.88755 -0.162607
11.7763 1.62512 -1.88755 -0.162607
11.5321 1.66815 1.88755 -0.165895
11.5321 1.66815 -1.88755 -0.165895
11.2825 1.71214 1.88755 -0.169392
11.2825 1.71214 -1.88755 -0.169392
11.0273 1.75709 1.88755 -0.17312
11.0273 1.75709 -1.88755 -0.17312
10.7665 1.80304 1.88755 -0.177104
10.7665 1.80304 -1.88755 -0.177104
10.5 1.85 1.88755 -0.181376
10.5 1.85 -1.88755 -0.181376
10.2335 1.89696 1.88755 -0.18592
10.2335 1.89696 -1.88755 -0.18592
9.97268 1.94291 1.88755 -0.190656
9.97268 1.94291 -1.88755 -0.190656
9.71754 1.98786 1.88755 -0.195544
9.71754 1.98786 -1.88755 -0.195544
9.4679 2.03185 1.88755 -0.200594
9.4679 2.03185 -1.88755 -0.200594
9.22365 2.07488 1.88755 -0.205812
9.22365 2.07488 -1.88755 -0.205812
8.98468 2.11699 1.88755 -0.211209
8.98468 2.11699 -1.88755 -0.211209
8.75087 2.15818 1.88755 -0.216792
8.75087 2.15818 -1.88755 -0.216792
8.5221 2.19849 1.88755 -0.222568
8.5221 2.19849 -1.88755 -0.222568
8.29828 2.23792 1.88755 -0.228544
8.29828 2.23792 -1.88755 -0.228544
8.0793 2.27651 1.88755 -0.234728
8.0793 2.27651 -1.88755 -0.234728
7.86504 2.31426 1.88755 -0.241126
7.86504 2.31426 -1.88755 -0.241126
7.6554 2.35119 1.88755 -0.247743
7.6554 2.35119 -1.88755 -0.247743
7.4503 2.38733 1.88755 -0.254583
7.4503 2.38733 -1.88755 -0.254583
7.24963 2.42269 1.88755 -0.261653
7.24963 2.42269 -1.88755 -0.261653
7.05328 2.45728 1.88755 -0.268956
7.05328 2.45728 -1.88755 -0.268956
6.86118 2.49112 1.88755 -0.276495
6.86118 2.49112 -1.88755 -0.276495
6.67323 2.52424 1.88755 -0.284274
6.67323 2.52424 -1.88755 -0.284274
6.48934 2.55664 1.88755 -0.292293
6.48934 2.55664 -1.88755 -0.292293
6.30942 2.58834 1.88755 -0.300557
6.30942 2.58834 -1.88755 -0.300557
6.13338 2.61936 1.88755 -0.309065
6.13338 2.61936 -1.88755 -0.309065
5.96114 2.6497 1.88755 -0.317819
5.96114 2.6497 -1.88755 -0.317819
5.79263 2.67939 1.88755 -0.326819
5.79263 2.67939 -1.88755 -0.326819
5.62775 2.70844 1.88755 -0.336067
5.62775 2.70844 -1.88755 -0.336067
5.46644 2.73687 1.88755 -0.345562
5.46644 2.73687 -1.88755 -0.345562
5.30861 2.76467 1.88755 -0.355304
5.30861 2.76467 -1.88755 -0.355304
5.15418 2.79188 1.88755 -0.365293
5.15418 2.79188 -1.88755 -0.365293
5.0031 2.8185 1.88755 -0.37553
5.0031 2.8185 -1.88755 -0.37553
4.85527 2.84455 1.88755 -0.386015
4.85527 2.84455 -1.88755 -0.386015
4.71064 2.87003 1.88755 -0.396746
4.71064 2.87003 -1.88755 -0.396746
4.56913 2.89496 1.88755 -0.407723
4.56913 2.89496 -1.88755 -0.407723
4.43067 2.91936 1.88755 -0.418946
4.43067 2.91936 -1.88755 -0.418946
4.29521 2.94322 1.88755 -0.430416
4.29521 2.94322 -1.88755 -0.430416
4.16267 2.96658 1.88755 -0.442132
4.16267 2.96658 -1.88755 -0.442132
4.033 2.98942 1.88755 -0.454094
4.033 2.98942 -1.88755 -0.454094
3.90612 3.01178 1.88755 -0.466303
3.90612 3.01178 -1.88755 -0.466303
3.78199 3.03365 1.88755 -0.478759
3.78199 3.03365 -1.88755 -0.478759
3.66053 3.05505 1.88755 -0.491463
3.66053 3.05505 -1.88755 -0.491463
3.5417 3.07599 1.88755 -0.504415
3.5417 3.07599 -1.88755 -0.504415
3.42544 3.09647 1.88755 -0.517617
3.42544 3.09647 -1.88755 -0.517617
3.31168 3.11651 1.88755 -0.531068
3.31168 3.11651 -1.88755 -0.531068
3.20039 3.13612 1.88755 -0.544768
3.20039 3.13612 -1.88755 -0.544768
3.09149 3.15531 1.88755 -0.558719
3.09149 3.15531 -1.88755 -0.558719
2.98495 3.17408 1.88755 -0.572919
2.98495 3.17408 -1.88755 -0.572919
2.88071 3.19245 1.88755 -0.587371
2.88071 3.19245 -1.88755 -0.587371
2.77872 3.21042 1.88755 -0.602074
2.77872 3.21042 -1.88755 -0.602074
2.67893 3.228 1.88755 -0.617031
2.67893 3.228 -1.88755 -0.617031
2.5813 3.2452 1.88755 -0.632241
2.5813 3.2452 -1.88755 -0.632241
2.48577 3.26203 1.88755 -0.647707
2.48577 3.26203 -1.88755 -0.647707
2.39231 3.2785 1.88755 -0.663431
2.39231 3.2785 -1.88755 -0.663431
2.30087 3.29461 1.88755 -0.679417
2.30087 3.29461 -1.88755 -0.679417
2.2114 3.31037 1.88755 -0.695667
2.2114 3.31037 -1.88755 -0.695667
2.12387 3.3258 1.88755 -0.712186
2.12387 3.3258 -1.88755 -0.712186
2.03822 3.34088 1.88755 -0.728979
2.03822 3.34088 -1.88755 -0.728979
1.95442 3.35565 1.88755 -0.74605
1.95442 3.35565 -1.88755 -0.74605
1.87244 3.37009 1.88755 -0.763407
1.87244 3.37009 -1.88755 -0.763407
1.79222 3.38423 1.88755 -0.781056
1.79222 3.38423 -1.88755 -0.781056
1.71374 3.39806 1.88755 -0.799009
1.71374 3.39806 -1.88755 -0.799009
1.63695 3.41158 1.88755 -0.817277
1.63695 3.41158 -1.88755 -0.817277
1.56182 3.42482 1.88755 -0.835876
1.56182 3.42482 -1.88755 -0.835876
1.48831 3.43777 1.88755 -0.854826
1.48831 3.43777 -1.88755 -0.854826
1.41639 3.45044 1.88755 -0.874149
1.41639 3.45044 -1.88755 -0.874149
1.34603 3.46284 1.88755 -0.893871
1.34603 3.46284 -1.88755 -0.893871
1.27718 3.47497 1.88755 -0.914029
1.27718 3.47497 -1.88755 -0.914029
1.20982 3.48684 1.88755 -0.934663
1.20982 3.48684 -1.88755 -0.934663
1.14391 3.49845 1.88755 -0.955825
1.14391 3.49845 -1.88755 -0.955825
1.07943 3.50981 1.88755 -0.97761
1.07943 3.50981 -1.88755 -0.97761
1.01634 3.52093 1.88755 -1.00015
1.01634 3.52093 -1.88755 -1.00015
0.954614 3.53181 1.88755 -1.0235
0.954614 3.53181 -1.88755 -1.0235
0.89422 3.54245 1.88755 -1.04796
0.89422 3.54245 -1.88755 -1.04796
0.83513 3.55286 1.88755 -1.07489
0.83513 3.55286 -1.88755 -1.07489
0.775596 3.56316 1.88755 -1.10215
0.775596 3.56316 -1.88755 -1.10215
0.716 3.57308 1.88755 -1.12779
0.716 3.57308 -1.88755 -1.12779
0.656344 3.58264 1.88755 -1.15297
0.656344 3.58264 -1.88755 -1.15297
0.596628 3.59182 1.88755 -1.17736
0.596628 3.59182 -1.88755 -1.17736
0.536857 3.60063 1.88755 -1.20107
0.536857 3.60063 -1.88755 -1.20107
0.477032 3.60907 1.88755 -1.22406
0.477032 3.60907 -1.88755 -1.22406
0.417156 3.61714 1.88755 -1.24629
0.417156 3.61714 -1.88755 -1.24629
0.357231 3.62483 1.88755 -1.26774
0.357231 3.62483 -1.88755 -1.26774
0.297259 3.63215 1.88755 -1.28835
0.297259 3.63215 -1.88755 -1.28835
0.237242 3.6391 1.88755 -1.30808
0.237242 3.6391 -1.88755 -1.30808
0.177183 3.64567 1.88755 -1.32689
0.177183 3.64567 -1.88755 -1.32689
0.117085 3.65187 1.88755 -1.34473
0.117085 3.65187 -1.88755 -1.34473
0.056949 3.6577 1.88755 -1.36154
0.056949 3.6577 -1.88755 -1.36154
-0.00322198 3.66314 1.88755 -1.37728
-0.00322198 3.66314 -1.88755 -1.37728
-0.0634257 3.66822 1.88755 -1.39188
-0.0634257 3.66822 -1.88755 -1.39188
-0.12366 3.67292 1.88755 -1.4053
-0.12366 3.67292 -1.88755 -1.4053
-0.183922 3.67724 1.88755 -1.41747
-0.183922 3.67724 -1.88755 -1.41747
-0.24421 3.68119 1.88755 -1.42832
-0.24421 3.68119 -1.88755 -1.42832
-0.304522 3.68476 1.88755 -1.43778
-0.304522 3.68476 -1.88755 -1.43778
-0.364854 3.68796 1.88755 -1.44577
-0.364854 3.68796 -1.88755 -1.44577
-0.425206 3.69078 1.88755 -1.45221
-0.425206 3.69078 -1.88755 -1.45221
-0.485573 3.69323 1.88755 -1.457
-0.485573 3.69323 -1.88755 -1.457
-0.545955 3.6953 1.88755 -1.46
-0.545955 3.6953 -1.88755 -1.46
-0.606349 3.69699 1.88755 -1.46102
-0.606349 3.69699 -1.88755 -1.46102
-0.666752 3.69831 1.88755 -1.45985
-0.666752 3.69831 -1.88755 -1.45985
-0.727161 3.69925 1.88755 -1.45655
-0.727161 3.69925 -1.88755 -1.45655
-0.787576 3.69981 1.88755 -1.4503
-0.787576 3.69981 -1.88755 -1.4503
-0.847993 3.7 1.88755 -1.43796
-0.847993 3.7 -1.88755 -1.43796
-0.907993 3.7 1.88755 -1.42529
-0.907993 3.7 -1.88755 -1.42529
-0.970739 3.7 1.88755 -1.41676
-0.970739 3.7 -1.88755 -1.41676
-1.03636 3.7 1.88755 -1.40939
-1.03636 3.7 -1.88755 -1.40939
-1.10498 3.7 1.88755 -1.40318
-1.10498 3.7 -1.88755 -1.40318
-1.17674 3.7 1.88755 -1.39774
-1.17674 3.7 -1.88755 -1.39774
-1.25179 3.7 1.88755 -1.39293
-1.25179 3.7 -1.88755 -1.39293
-1.33028 3.7 1.88755 -1.38861
-1.33028 3.7 -1.88755 -1.38861
-1.41235 3.7 1.88755 -1.3847
-1.41235 3.7 -1.88755 -1.3847
-1.49818 3.7 1.88755 -1.38112
-1.49818 3.7 -1.88755 -1.38112
-1.58795 3.7 1.88755 -1.37779
-1.58795 3.7 -1.88755 -1.37779
-1.68182 3.7 1.88755 -1.37467
-1.68182 3.7 -1.88755 -1.37467
-1.77998 3.7 1.88755 -1.37172
-1.77998 3.7 -1.88755 -1.37172
-1.88265 3.7 1.88755 -1.36887
-1.88265 3.7 -1.88755 -1.36887
-1.99001 3.7 1.88755 -1.36611
-1.99001 3.7 -1.88755 -1.36611
-2.10228 3.7 1.88755 -1.3634
-2.10228 3.7 -1.88755 -1.3634
-2.2197 3.7 1.88755 -1.3607
-2.2197 3.7 -1.88755 -1.3607
-2.34248 3.7 1.88755 -1.35799
-2.34248 3.7 -1.88755 -1.35799
-2.47089 3.7 1.88755 -1.35526
-2.47089 3.7 -1.88755 -1.35526
-2.60518 3.7 1.88755 -1.35246
-2.60518 3.7 -1.88755 -1.35246
-2.74561 3.7 1.88755 -1.3496
-2.74561 3.7 -1.88755 -1.3496
-2.89248 3.7 1.88755 -1.34664
-2.89248 3.7 -1.88755 -1.34664
-3.04606 3.7 1.88755 -1.34359
-3.04606 3.7 -1.88755 -1.34359
-3.20668 3.7 1.88755 -1.34041
-3.20668 3.7 -1.88755 -1.34041
-3.37464 3.7 1.88755 -1.33711
-3.37464 3.7 -1.88755 -1.33711
-3.5503 3.7 1.88755 -1.33367
-3.5503 3.7 -1.88755 -1.33367
-3.73399 3.7 1.88755 -1.33009
-3.73399 3.7 -1.88755 -1.33009
-3.9261 3.7 1.88755 -1.32634
-3.9261 3.7 -1.88755 -1.32634
-4.127 3.7 1.88755 -1.32243
-4.127 3.7 -1.88755 -1.32243
-4.33709 3.7 1.88755 -1.31834
-4.33709 3.7 -1.88755 -1.31834
-4.5568 3.7 1.88755 -1.31407
-4.5568 3.7 -1.88755 -1.31407
-4.77651 3.7 1.88755 -1.3097
-4.77651 3.7 -1.88755 -1.3097
-4.99551 3.7 1.88755 -1.30534
-4.99551 3.7 -1.88755 -1.30534
-5.21381 3.7 1.88755 -1.30099
-5.21381 3.7 -1.88755 -1.30099
-5.43139 3.7 1.88755 -1.29666
-5.43139 3.7 -1.88755 -1.29666
-5.64827 3.7 1.88755 -1.29234
-5.64827 3.7 -1.88755 -1.29234
-5.86445 3.7 1.88755 -1.28803
-5.86445 3.7 -1.88755 -1.28803
-6.07993 3.7 1.88755 -1.28374
-6.07993 3.7 -1.88755 -1.28374
-6.29471 3.7 1.88755 -1.27947
-6.29471 3.7 -1.88755 -1.27947
-6.5088 3.7 1.88755 -1.27521
-6.5088 3.7 -1.88755 -1.27521
-6.72219 3.7 1.88755 -1.27096
-6.72219 3.7 -1.88755 -1.27096
-6.9349 3.7 1.88755 -1.26672
-6.9349 3.7 -1.88755 -1.26672
-7.14691 3.7 1.88755 -1.2625
-7.14691 3.7 -1.88755 -1.2625
-7.35824 3.7 1.88755 -1.2583
-7.35824 3.7 -1.88755 -1.2583
-7.56889 3.7 1.88755 -1.2541
-7.56889 3.7 -1.88755 -1.2541
-7.77885 3.7 1.88755 -1.24992
-7.77885 3.7 -1.88755 -1.24992
-7.98813 3.7 1.88755 -1.24576
-7.98813 3.7 -1.88755 -1.24576
-8.19674 3.7 1.88755 -1.24161
-8.19674 3.7 -1.88755 -1.24161
-8.40467 3.7 1.88755 -1.23747
-8.40467 3.7 -1.88755 -1.23747
-8.61193 3.7 1.88755 -1.23334
-8.61193 3.7 -1.88755 -1.23334
-8.81852 3.7 1.88755 -1.22923
-8.81852 3.7 -1.88755 -1.22923
-9.02444 3.7 1.88755 -1.22513
-9.02444 3.7 -1.88755 -1.22513
-9.2297 3.7 1.88755 -1.22104
-9.2297 3.7 -1.88755 -1.22104
-9.43428 3.7 1.88755 -1.21697
-9.43428 3.7 -1.88755 -1.21697
-9.63821 3.7 1.88755 -1.21291
-9.63821 3.7 -1.88755 -1.21291
-9.84148 3.7 1.88755 -1.20887
-9.84148 3.7 -1.88755 -1.20887
-10.0441 3.7 1.88755 -1.20484
-10.0441 3.7 -1.88755 -1.20484
-10.246 3.7 1.88755 -1.20082
-10.246 3.7 -1.88755 -1.20082
-10.4473 3.7 1.88755 -1.19681
-10.4473 3.7 -1.88755 -1.19681
-10.648 3.7 1.88755 -1.19283
-10.648 3.7 -1.88755 -1.19283
-10.848 3.7 1.88755 -1.18877
-10.848 3.7 -1.88755 -1.18877
-59.848 3.7 1.88755 -0.205287
-60.848 3.7 1.88755 -0.205287
-60.848 3.7 -1.88755 -0.205287
-59.848 3.7 -1.88755 -0.205287
-58.8506 3.7 1.88755 -0.224598
-58.8506 3.7 -1.88755 -0.224598
-57.8559 3.7 1.88755 -0.243937
-57.8559 3.7 -1.88755 -0.243937
-56.8639 3.7 1.88755 -0.263294
-56.8639 3.7 -1.88755 -0.263294
-55.8744 3.7 1.88755 -0.282662
-55.8744 3.7 -1.88755 -0.282662
-54.8876 3.7 1.88755 -0.302034
-54.8876 3.7 -1.88755 -0.302034
-53.9034 3.7 1.88755 -0.321403
-53.9034 3.7 -1.88755 -0.321403
-52.9218 3.7 1.88755 -0.340764
-52.9218 3.7 -1.88755 -0.340764
-51.9429 3.7 1.88755 -0.36011
-51.9429 3.7 -1.88755 -0.36011
-50.9665 3.7 1.88755 -0.379437
-50.9665 3.7 -1.88755 -0.379437
-49.9927 3.7 1.88755 -0.398739
-49.9927 3.7 -1.88755 -0.398739
-49.0215 3.7 1.88755 -0.418013
-49.0215 3.7 -1.88755 -0.418013
-48.0528 3.7 1.88755 -0.437255
-48.0528 3.7 -1.88755 -0.437255
-47.0867 3.7 1.88755 -0.456463
-47.0867 3.7 -1.88755 -0.456463
-46.1232 3.7 1.88755 -0.475632
-46.1232 3.7 -1.88755 -0.475632
-45.1622 3.7 1.88755 -0.494761
-45.1622 3.7 -1.88755 -0.494761
-44.2038 3.7 1.88755 -0.513848
-44.2038 3.7 -1.88755 -0.513848
-43.248 3.7 1.88755 -0.532891
-43.248 3.7 -1.88755 -0.532891
-42.2946 3.7 1.88755 -0.551889
-42.2946 3.7 -1.88755 -0.551889
-41.3438 3.7 1.88755 -0.57084
-41.3438 3.7 -1.88755 -0.57084
-40.3955 3.7 1.88755 -0.589743
-40.3955 3.7 -1.88755 -0.589743
-39.4497 3.7 1.88755 -0.608597
-39.4497 3.7 -1.88755 -0.608597
-38.5065 3.7 1.88755 -0.627402
-38.5065 3.7 -1.88755 -0.627402
-37.5657 3.7 1.88755 -0.646158
-37.5657 3.7 -1.88755 -0.646158
-36.6274 3.7 1.88755 -0.664863
-36.6274 3.7 -1.88755 -0.664863
-35.6916 3.7 1.88755 -0.683518
-35.6916 3.7 -1.88755 -0.683518
-34.7583 3.7 1.88755 -0.702122
-34.7583 3.7 -1.88755 -0.702122
-33.8275 3.7 1.88755 -0.720675
-33.8275 3.7 -1.88755 -0.720675
-32.8991 3.7 1.88755 -0.739178
-32.8991 3.7 -1.88755 -0.739178
-31.9732 3.7 1.88755 -0.757629
-31.9732 3.7 -1.88755 -0.757629
-31.0498 3.7 1.88755 -0.77603
-31.0498 3.7 -1.88755 -0.77603
-30.1288 3.7 1.88755 -0.79438
-30.1288 3.7 -1.88755 -0.79438
-29.2102 3.7 1.88755 -0.81268
-29.2102 3.7 -1.88755 -0.81268
-28.2941 3.7 1.88755 -0.83093
-28.2941 3.7 -1.88755 -0.83093
-27.3804 3.7 1.88755 -0.849129
-27.3804 3.7 -1.88755 -0.849129
-26.4667 3.7 1.88755 -0.867302
-26.4667 3.7 -1.88755 -0.867302
-25.5929 3.7 1.88755 -0.885077
-25.5929 3.7 -1.88755 -0.885077
-24.7573 3.7 1.88755 -0.902074
-24.7573 3.7 -1.88755 -0.902074
-23.9582 3.7 1.88755 -0.918326
-23.9582 3.7 -1.88755 -0.918326
-23.1941 3.7 1.88755 -0.933867
-23.1941 3.7 -1.88755 -0.933867
-22.4633 3.7 1.88755 -0.948729
-22.4633 3.7 -1.88755 -0.948729
-21.7645 3.7 1.88755 -0.96294
-21.7645 3.7 -1.88755 -0.96294
-21.0962 3.7 1.88755 -0.976529
-21.0962 3.7 -1.88755 -0.976529
-20.4571 3.7 1.88755 -0.989524
-20.4571 3.7 -1.88755 -0.989524
-19.8459 3.7 1.88755 -1.00195
-19.8459 3.7 -1.88755 -1.00195
-19.2615 3.7 1.88755 -1.01383
-19.2615 3.7 -1.88755 -1.01383
-18.7026 3.7 1.88755 -1.0252
-18.7026 3.7 -1.88755 -1.0252
-18.1681 3.7 1.88755 -1.03606
-18.1681 3.7 -1.88755 -1.03606
-17.6569 3.7 1.88755 -1.04646
-17.6569 3.7 -1.88755 -1.04646