# p  POINT_DATA 994
# x y z  p
76.848 4.7 1.88755 -2.99302e-05
77.848 4.7 1.88755 -2.99302e-05
77.848 4.7 -1.88755 -2.99302e-05
76.848 4.7 -1.88755 -2.99302e-05
75.8596 4.7 -1.88755 0.000319217
75.8596 4.7 1.88755 0.000319217
74.8826 4.7 -1.88755 0.000411065
74.8826 4.7 1.88755 0.000411065
73.9169 4.7 -1.88755 0.000601194
73.9169 4.7 1.88755 0.000601194
72.9624 4.7 -1.88755 0.000755117
72.9624 4.7 1.88755 0.000755117
72.019 4.7 -1.88755 0.000919582
72.019 4.7 1.88755 0.000919582
71.0865 4.7 -1.88755 0.00107626
71.0865 4.7 1.88755 0.00107626
70.1648 4.7 -1.88755 0.00123099
70.1648 4.7 1.88755 0.00123099
69.2537 4.7 -1.88755 0.00138098
69.2537 4.7 1.88755 0.00138098
68.3532 4.7 -1.88755 0.00152693
68.3532 4.7 1.88755 0.00152693
67.4632 4.7 -1.88755 0.00166803
67.4632 4.7 1.88755 0.00166803
66.5834 4.7 -1.88755 0.00180436
66.5834 4.7 1.88755 0.00180436
65.7138 4.7 -1.88755 0.00193554
65.7138 4.7 1.88755 0.00193554
64.8543 4.7 -1.88755 0.00206178
64.8543 4.7 1.88755 0.00206178
64.0048 4.7 -1.88755 0.00218268
64.0048 4.7 1.88755 0.00218268
63.1651 4.7 -1.88755 0.00229825
63.1651 4.7 1.88755 0.00229825
62.3351 4.7 -1.88755 0.00240818
62.3351 4.7 1.88755 0.00240818
61.5147 4.7 -1.88755 0.00251247
61.5147 4.7 1.88755 0.00251247
60.7038 4.7 -1.88755 0.00261066
60.7038 4.7 1.88755 0.00261066
59.9024 4.7 -1.88755 0.0027025
59.9024 4.7 1.88755 0.0027025
59.1102 4.7 -1.88755 0.00278768
59.1102 4.7 1.88755 0.00278768
58.3271 4.7 -1.88755 0.00286584
58.3271 4.7 1.88755 0.00286584
57.5532 4.7 -1.88755 0.00293702
57.5532 4.7 1.88755 0.00293702
56.7882 4.7 -1.88755 0.00300125
56.7882 4.7 1.88755 0.00300125
56.032 4.7 -1.88755 0.00305837
56.032 4.7 1.88755 0.00305837
55.2846 4.7 -1.88755 0.0031075
55.2846 4.7 1.88755 0.0031075
54.5459 4.7 -1.88755 0.00314805
54.5459 4.7 1.88755 0.00314805
53.8157 4.7 -1.88755 0.00317997
53.8157 4.7 1.88755 0.00317997
53.094 4.7 -1.88755 0.00320281
53.094 4.7 1.88755 0.00320281
52.3806 4.7 -1.88755 0.00321614
52.3806 4.7 1.88755 0.00321614
51.6755 4.7 -1.88755 0.00321948
51.6755 4.7 1.88755 0.00321948
50.9785 4.7 -1.88755 0.00321219
50.9785 4.7 1.88755 0.00321219
50.2897 4.7 -1.88755 0.00319375
50.2897 4.7 1.88755 0.00319375
49.6088 4.7 -1.88755 0.00316358
49.6088 4.7 1.88755 0.00316358
48.9358 4.7 -1.88755 0.00312113
48.9358 4.7 1.88755 0.00312113
48.2705 4.7 -1.88755 0.00306574
48.2705 4.7 1.88755 0.00306574
47.613 4.7 -1.88755 0.00299653
47.613 4.7 1.88755 0.00299653
46.9631 4.7 -1.88755 0.00291273
46.9631 4.7 1.88755 0.00291273
46.3207 4.7 -1.88755 0.00281315
46.3207 4.7 1.88755 0.00281315
45.6858 4.7 -1.88755 0.00269713
45.6858 4.7 1.88755 0.00269713
45.0582 4.7 -1.88755 0.00256363
45.0582 4.7 1.88755 0.00256363
44.4379 4.7 -1.88755 0.00241224
44.4379 4.7 1.88755 0.00241224
43.8248 4.7 -1.88755 0.0022418
43.8248 4.7 1.88755 0.0022418
43.2187 4.7 -1.88755 0.00205077
43.2187 4.7 1.88755 0.00205077
42.6197 4.7 -1.88755 0.00183511
42.6197 4.7 1.88755 0.00183511
42.0276 4.7 -1.88755 0.00159408
42.0276 4.7 1.88755 0.00159408
41.4424 4.7 -1.88755 0.00132816
41.4424 4.7 1.88755 0.00132816
40.8639 4.7 -1.88755 0.00103513
40.8639 4.7 1.88755 0.00103513
40.2922 4.7 -1.88755 0.000712375
40.2922 4.7 1.88755 0.000712375
39.727 4.7 -1.88755 0.000357398
39.727 4.7 1.88755 0.000357398
39.1685 4.7 -1.88755 -3.18157e-05
39.1685 4.7 1.88755 -3.18157e-05
38.6163 4.7 -1.88755 -0.000457941
38.6163 4.7 1.88755 -0.000457941
38.0706 4.7 -1.88755 -0.000922918
38.0706 4.7 1.88755 -0.000922918
37.5312 4.7 -1.88755 -0.00142829
37.5312 4.7 1.88755 -0.00142829
36.998 4.7 -1.88755 -0.00197931
36.998 4.7 1.88755 -0.00197931
36.4711 4.7 -1.88755 -0.00257985
36.4711 4.7 1.88755 -0.00257985
35.9502 4.7 -1.88755 -0.0032328
35.9502 4.7 1.88755 -0.0032328
35.4353 4.7 -1.88755 -0.00394125
35.4353 4.7 1.88755 -0.00394125
34.9264 4.7 -1.88755 -0.00470908
34.9264 4.7 1.88755 -0.00470908
34.4234 4.7 -1.88755 -0.00554198
34.4234 4.7 1.88755 -0.00554198
33.9204 4.7 -1.88755 -0.00645358
33.9204 4.7 1.88755 -0.00645358
33.4352 4.7 -1.88755 -0.00743563
33.4352 4.7 1.88755 -0.00743563
32.9672 4.7 -1.88755 -0.00846671
32.9672 4.7 1.88755 -0.00846671
32.5157 4.7 -1.88755 -0.00954582
32.5157 4.7 1.88755 -0.00954582
32.0803 4.7 -1.88755 -0.010678
32.0803 4.7 1.88755 -0.010678
31.6602 4.7 -1.88755 -0.0118597
31.6602 4.7 1.88755 -0.0118597
31.255 4.7 -1.88755 -0.013087
31.255 4.7 1.88755 -0.013087
30.8642 4.7 -1.88755 -0.0143591
30.8642 4.7 1.88755 -0.0143591
30.4871 4.7 -1.88755 -0.0156716
30.4871 4.7 1.88755 -0.0156716
30.1235 4.7 -1.88755 -0.0170185
30.1235 4.7 1.88755 -0.0170185
29.7727 4.7 -1.88755 -0.0183976
29.7727 4.7 1.88755 -0.0183976
29.4343 4.7 -1.88755 -0.0198119
29.4343 4.7 1.88755 -0.0198119
29.1079 4.7 -1.88755 -0.0212533
29.1079 4.7 1.88755 -0.0212533
28.793 4.7 -1.88755 -0.0227171
28.793 4.7 1.88755 -0.0227171
28.4893 4.7 -1.88755 -0.0242034
28.4893 4.7 1.88755 -0.0242034
28.1964 4.7 -1.88755 -0.0257045
28.1964 4.7 1.88755 -0.0257045
27.9138 4.7 -1.88755 -0.0272124
27.9138 4.7 1.88755 -0.0272124
27.6412 4.7 -1.88755 -0.028727
27.6412 4.7 1.88755 -0.028727
27.3783 4.7 -1.88755 -0.0302444
27.3783 4.7 1.88755 -0.0302444
27.1246 4.7 -1.88755 -0.0317602
27.1246 4.7 1.88755 -0.0317602
26.88 4.7 -1.88755 -0.0332756
26.88 4.7 1.88755 -0.0332756
26.644 4.7 -1.88755 -0.0347863
26.644 4.7 1.88755 -0.0347863
26.4164 4.7 -1.88755 -0.0362811
26.4164 4.7 1.88755 -0.0362811
26.1968 4.7 -1.88755 -0.0377607
26.1968 4.7 1.88755 -0.0377607
25.985 4.7 -1.88755 -0.0392255
25.985 4.7 1.88755 -0.0392255
25.7807 4.7 -1.88755 -0.0406699
25.7807 4.7 1.88755 -0.0406699
25.5836 4.7 -1.88755 -0.0420906
25.5836 4.7 1.88755 -0.0420906
25.3935 4.7 -1.88755 -0.0434864
25.3935 4.7 1.88755 -0.0434864
25.2101 4.7 -1.88755 -0.044858
25.2101 4.7 1.88755 -0.044858
25.0332 4.7 -1.88755 -0.0461985
25.0332 4.7 1.88755 -0.0461985
24.8626 4.7 -1.88755 -0.0475096
24.8626 4.7 1.88755 -0.0475096
24.698 4.7 -1.88755 -0.0487938
24.698 4.7 1.88755 -0.0487938
24.5393 4.7 -1.88755 -0.0500402
24.5393 4.7 1.88755 -0.0500402
24.3861 4.7 -1.88755 -0.0512544
24.3861 4.7 1.88755 -0.0512544
24.2384 4.7 -1.88755 -0.0524392
24.2384 4.7 1.88755 -0.0524392
24.0959 4.7 -1.88755 -0.0535895
24.0959 4.7 1.88755 -0.0535895
23.9585 4.7 -1.88755 -0.0547069
23.9585 4.7 1.88755 -0.0547069
23.8259 4.7 -1.88755 -0.0557929
23.8259 4.7 1.88755 -0.0557929
23.698 4.7 -1.88755 -0.0568408
23.698 4.7 1.88755 -0.0568408
23.5746 4.7 -1.88755 -0.0578513
23.5746 4.7 1.88755 -0.0578513
23.4557 4.7 -1.88755 -0.0588319
23.4557 4.7 1.88755 -0.0588319
23.3409 4.7 -1.88755 -0.0597805
23.3409 4.7 1.88755 -0.0597805
23.2302 4.7 -1.88755 -0.0606965
23.2302 4.7 1.88755 -0.0606965
23.1234 4.7 -1.88755 -0.0615813
23.1234 4.7 1.88755 -0.0615813
23.0203 4.7 -1.88755 -0.0624371
23.0203 4.7 1.88755 -0.0624371
22.921 4.7 -1.88755 -0.0632672
22.921 4.7 1.88755 -0.0632672
22.8251 4.7 -1.88755 -0.064065
22.8251 4.7 1.88755 -0.064065
22.7326 4.7 -1.88755 -0.064828
22.7326 4.7 1.88755 -0.064828
22.6435 4.7 -1.88755 -0.0655656
22.6435 4.7 1.88755 -0.0655656
22.5574 4.7 -1.88755 -0.0662788
22.5574 4.7 1.88755 -0.0662788
22.4744 4.7 -1.88755 -0.0669665
22.4744 4.7 1.88755 -0.0669665
22.3944 4.7 -1.88755 -0.0676286
22.3944 4.7 1.88755 -0.0676286
22.3172 4.7 -1.88755 -0.0682668
22.3172 4.7 1.88755 -0.0682668
22.2427 4.7 -1.88755 -0.0688805
22.2427 4.7 1.88755 -0.0688805
22.1708 4.7 -1.88755 -0.06947
22.1708 4.7 1.88755 -0.06947
22.1015 4.7 -1.88755 -0.0700376
22.1015 4.7 1.88755 -0.0700376
22.0347 4.7 -1.88755 -0.0705858
22.0347 4.7 1.88755 -0.0705858
21.9702 4.7 -1.88755 -0.0711146
21.9702 4.7 1.88755 -0.0711146
21.908 4.7 -1.88755 -0.0716193
21.908 4.7 1.88755 -0.0716193
21.848 4.7 -1.88755 -0.0721059
21.848 4.7 1.88755 -0.0721059
21.7879 4.7 -1.88755 -0.0725865
21.7879 4.7 1.88755 -0.0725865
21.7278 4.7 -1.88755 -0.073065
21.7278 4.7 1.88755 -0.073065
21.6677 4.7 -1.88755 -0.0735424
21.6677 4.7 1.88755 -0.0735424
21.6075 4.7 -1.88755 -0.0740183
21.6075 4.7 1.88755 -0.0740183
21.5474 4.7 -1.88755 -0.0744934
21.5474 4.7 1.88755 -0.0744934
21.4873 4.7 -1.88755 -0.074967
21.4873 4.7 1.88755 -0.074967
21.4272 4.7 -1.88755 -0.0754399
21.4272 4.7 1.88755 -0.0754399
21.3671 4.7 -1.88755 -0.0759118
21.3671 4.7 1.88755 -0.0759118
21.307 4.7 -1.88755 -0.0763812
21.307 4.7 1.88755 -0.0763812
21.2469 4.7 -1.88755 -0.0768501
21.2469 4.7 1.88755 -0.0768501
21.1868 4.7 -1.88755 -0.0773182
21.1868 4.7 1.88755 -0.0773182
21.1267 4.7 -1.88755 -0.0777851
21.1267 4.7 1.88755 -0.0777851
21.0665 4.7 -1.88755 -0.0782543
21.0665 4.7 1.88755 -0.0782543
21.0064 4.7 -1.88755 -0.0787228
21.0064 4.7 1.88755 -0.0787228
20.9463 4.7 -1.88755 -0.0791916
20.9463 4.7 1.88755 -0.0791916
20.8862 4.7 -1.88755 -0.0796564
20.8862 4.7 1.88755 -0.0796564
20.8261 4.7 -1.88755 -0.0801158
20.8261 4.7 1.88755 -0.0801158
20.766 4.7 -1.88755 -0.0805783
20.766 4.7 1.88755 -0.0805783
20.7059 4.7 -1.88755 -0.0810384
20.7059 4.7 1.88755 -0.0810384
20.6458 4.7 -1.88755 -0.0814964
20.6458 4.7 1.88755 -0.0814964
20.5857 4.7 -1.88755 -0.0819552
20.5857 4.7 1.88755 -0.0819552
20.5255 4.7 -1.88755 -0.0824118
20.5255 4.7 1.88755 -0.0824118
20.4654 4.7 -1.88755 -0.0828683
20.4654 4.7 1.88755 -0.0828683
20.4053 4.7 -1.88755 -0.0833213
20.4053 4.7 1.88755 -0.0833213
20.3452 4.7 -1.88755 -0.083775
20.3452 4.7 1.88755 -0.083775
20.2851 4.7 -1.88755 -0.0842306
20.2851 4.7 1.88755 -0.0842306
20.225 4.7 -1.88755 -0.0846829
20.225 4.7 1.88755 -0.0846829
20.1649 4.7 -1.88755 -0.0851346
20.1649 4.7 1.88755 -0.0851346
20.1049 4.7 -1.88755 -0.0855841
20.1049 4.7 1.88755 -0.0855841
20.0436 4.7 -1.88755 -0.086038
20.0436 4.7 1.88755 -0.086038
19.9809 4.7 -1.88755 -0.0865013
19.9809 4.7 1.88755 -0.0865013
19.9169 4.7 -1.88755 -0.0869739
19.9169 4.7 1.88755 -0.0869739
19.8516 4.7 -1.88755 -0.0874586
19.8516 4.7 1.88755 -0.0874586
19.7848 4.7 -1.88755 -0.0879538
19.7848 4.7 1.88755 -0.0879538
19.7165 4.7 -1.88755 -0.0884584
19.7165 4.7 1.88755 -0.0884584
19.6468 4.7 -1.88755 -0.0889757
19.6468 4.7 1.88755 -0.0889757
19.5755 4.7 -1.88755 -0.0894998
19.5755 4.7 1.88755 -0.0894998
19.5027 4.7 -1.88755 -0.0900326
19.5027 4.7 1.88755 -0.0900326
19.4284 4.7 -1.88755 -0.0905792
19.4284 4.7 1.88755 -0.0905792
19.3524 4.7 -1.88755 -0.0911371
19.3524 4.7 1.88755 -0.0911371
19.2747 4.7 -1.88755 -0.091703
19.2747 4.7 1.88755 -0.091703
19.1954 4.7 -1.88755 -0.0922807
19.1954 4.7 1.88755 -0.0922807
19.1144 4.7 -1.88755 -0.0928761
19.1144 4.7 1.88755 -0.0928761
19.0315 4.7 -1.88755 -0.0934849
19.0315 4.7 1.88755 -0.0934849
18.9469 4.7 -1.88755 -0.0941078
18.9469 4.7 1.88755 -0.0941078
18.8605 4.7 -1.88755 -0.0947456
18.8605 4.7 1.88755 -0.0947456
18.7722 4.7 -1.88755 -0.0953945
18.7722 4.7 1.88755 -0.0953945
18.6819 4.7 -1.88755 -0.0960553
18.6819 4.7 1.88755 -0.0960553
18.5898 4.7 -1.88755 -0.0967355
18.5898 4.7 1.88755 -0.0967355
18.4956 4.7 -1.88755 -0.0974321
18.4956 4.7 1.88755 -0.0974321
18.3993 4.7 -1.88755 -0.0981455
18.3993 4.7 1.88755 -0.0981455
18.301 4.7 -1.88755 -0.0988764
18.301 4.7 1.88755 -0.0988764
18.2005 4.7 -1.88755 -0.0996257
18.2005 4.7 1.88755 -0.0996257
18.0979 4.7 -1.88755 -0.100394
18.0979 4.7 1.88755 -0.100394
17.993 4.7 -1.88755 -0.101182
17.993 4.7 1.88755 -0.101182
17.8859 4.7 -1.88755 -0.101991
17.8859 4.7 1.88755 -0.101991
17.7764 4.7 -1.88755 -0.102822
17.7764 4.7 1.88755 -0.102822
17.6645 4.7 -1.88755 -0.103677
17.6645 4.7 1.88755 -0.103677
17.5502 4.7 -1.88755 -0.104558
17.5502 4.7 1.88755 -0.104558
17.4335 4.7 -1.88755 -0.105464
17.4335 4.7 1.88755 -0.105464
17.3142 4.7 -1.88755 -0.106393
17.3142 4.7 1.88755 -0.106393
17.1923 4.7 -1.88755 -0.107342
17.1923 4.7 1.88755 -0.107342
17.0678 4.7 -1.88755 -0.108324
17.0678 4.7 1.88755 -0.108324
16.9405 4.7 -1.88755 -0.109343
16.9405 4.7 1.88755 -0.109343
16.8105 4.7 -1.88755 -0.110392
16.8105 4.7 1.88755 -0.110392
16.6777 4.7 -1.88755 -0.111471
16.6777 4.7 1.88755 -0.111471
16.542 4.7 -1.88755 -0.112587
16.542 4.7 1.88755 -0.112587
16.4034 4.7 -1.88755 -0.113745
16.4034 4.7 1.88755 -0.113745
16.2617 4.7 -1.88755 -0.114941
16.2617 4.7 1.88755 -0.114941
16.117 4.7 -1.88755 -0.116173
16.117 4.7 1.88755 -0.116173
15.9691 4.7 -1.88755 -0.117449
15.9691 4.7 1.88755 -0.117449
15.818 4.7 -1.88755 -0.118777
15.818 4.7 1.88755 -0.118777
15.6636 4.7 -1.88755 -0.120153
15.6636 4.7 1.88755 -0.120153
15.5059 4.7 -1.88755 -0.121583
15.5059 4.7 1.88755 -0.121583
15.3448 4.7 -1.88755 -0.123069
15.3448 4.7 1.88755 -0.123069
15.1801 4.7 -1.88755 -0.124615
15.1801 4.7 1.88755 -0.124615
15.0119 4.7 -1.88755 -0.126226
15.0119 4.7 1.88755 -0.126226
14.84 4.7 -1.88755 -0.127907
14.84 4.7 1.88755 -0.127907
14.6644 4.7 -1.88755 -0.129661
14.6644 4.7 1.88755 -0.129661
14.485 4.7 -1.88755 -0.131493
14.485 4.7 1.88755 -0.131493
14.3017 4.7 -1.88755 -0.133411
14.3017 4.7 1.88755 -0.133411
14.1144 4.7 -1.88755 -0.135419
14.1144 4.7 1.88755 -0.135419
13.9231 4.7 -1.88755 -0.137525
13.9231 4.7 1.88755 -0.137525
13.7276 4.7 -1.88755 -0.139738
13.7276 4.7 1.88755 -0.139738
13.5278 4.7 -1.88755 -0.142064
13.5278 4.7 1.88755 -0.142064
13.3237 4.7 -1.88755 -0.14451
13.3237 4.7 1.88755 -0.14451
13.1152 4.7 -1.88755 -0.147088
13.1152 4.7 1.88755 -0.147088
12.9022 4.7 -1.88755 -0.149812
12.9022 4.7 1.88755 -0.149812
12.6845 4.7 -1.88755 -0.152692
12.6845 4.7 1.88755 -0.152692
12.4621 4.7 -1.88755 -0.155739
12.4621 4.7 1.88755 -0.155739
12.2349 4.7 -1.88755 -0.15897
12.2349 4.7 1.88755 -0.15897
12.0027 4.7 -1.88755 -0.1624
12.0027 4.7 1.88755 -0.1624
11.7655 4.7 -1.88755 -0.166049
11.7655 4.7 1.88755 -0.166049
11.5232 4.7 -1.88755 -0.169935
11.5232 4.7 1.88755 -0.169935
11.2755 4.7 -1.88755 -0.174081
11.2755 4.7 1.88755 -0.174081
11.0226 4.7 -1.88755 -0.178509
11.0226 4.7 1.88755 -0.178509
10.7641 4.7 -1.88755 -0.183248
10.7641 4.7 1.88755 -0.183248
10.5 4.7 -1.88755 -0.188331
10.5 4.7 1.88755 -0.188331
10.2359 4.7 -1.88755 -0.193734
10.2359 4.7 1.88755 -0.193734
9.97744 4.7 -1.88755 -0.199357
9.97744 4.7 1.88755 -0.199357
9.72445 4.7 -1.88755 -0.205143
9.72445 4.7 1.88755 -0.205143
9.47684 4.7 -1.88755 -0.211094
9.47684 4.7 1.88755 -0.211094
9.2345 4.7 -1.88755 -0.217211
9.2345 4.7 1.88755 -0.217211
8.9973 4.7 -1.88755 -0.223496
8.9973 4.7 1.88755 -0.223496
8.76514 4.7 -1.88755 -0.22995
8.76514 4.7 1.88755 -0.22995
8.53792 4.7 -1.88755 -0.236573
8.53792 4.7 1.88755 -0.236573
8.31552 4.7 -1.88755 -0.243368
8.31552 4.7 1.88755 -0.243368
8.09785 4.7 -1.88755 -0.250335
8.09785 4.7 1.88755 -0.250335
7.8848 4.7 -1.88755 -0.257475
7.8848 4.7 1.88755 -0.257475
7.67629 4.7 -1.88755 -0.264792
7.67629 4.7 1.88755 -0.264792
7.4722 4.7 -1.88755 -0.272285
7.4722 4.7 1.88755 -0.272285
7.27245 4.7 -1.88755 -0.279957
7.27245 4.7 1.88755 -0.279957
7.07694 4.7 -1.88755 -0.287811
7.07694 4.7 1.88755 -0.287811
6.88558 4.7 -1.88755 -0.295847
6.88558 4.7 1.88755 -0.295847
6.6983 4.7 -1.88755 -0.30407
6.6983 4.7 1.88755 -0.30407
6.51499 4.7 -1.88755 -0.312482
6.51499 4.7 1.88755 -0.312482
6.33558 4.7 -1.88755 -0.321085
6.33558 4.7 1.88755 -0.321085
6.15998 4.7 -1.88755 -0.329884
6.15998 4.7 1.88755 -0.329884
5.98811 4.7 -1.88755 -0.338881
5.98811 4.7 1.88755 -0.338881
5.81989 4.7 -1.88755 -0.34808
5.81989 4.7 1.88755 -0.34808
5.65525 4.7 -1.88755 -0.357485
5.65525 4.7 1.88755 -0.357485
5.4941 4.7 -1.88755 -0.367099
5.4941 4.7 1.88755 -0.367099
5.33638 4.7 -1.88755 -0.376926
5.33638 4.7 1.88755 -0.376926
5.18201 4.7 -1.88755 -0.386971
5.18201 4.7 1.88755 -0.386971
5.03092 4.7 -1.88755 -0.397237
5.03092 4.7 1.88755 -0.397237
4.88305 4.7 -1.88755 -0.407727
4.88305 4.7 1.88755 -0.407727
4.73831 4.7 -1.88755 -0.418446
4.73831 4.7 1.88755 -0.418446
4.59665 4.7 -1.88755 -0.429397
4.59665 4.7 1.88755 -0.429397
4.458 4.7 -1.88755 -0.440583
4.458 4.7 1.88755 -0.440583
4.32229 4.7 -1.88755 -0.452007
4.32229 4.7 1.88755 -0.452007
4.18947 4.7 -1.88755 -0.463673
4.18947 4.7 1.88755 -0.463673
4.05947 4.7 -1.88755 -0.475582
4.05947 4.7 1.88755 -0.475582
3.93223 4.7 -1.88755 -0.487739
3.93223 4.7 1.88755 -0.487739
3.8077 4.7 -1.88755 -0.500143
3.8077 4.7 1.88755 -0.500143
3.68581 4.7 -1.88755 -0.512799
3.68581 4.7 1.88755 -0.512799
3.56652 4.7 -1.88755 -0.525706
3.56652 4.7 1.88755 -0.525706
3.44975 4.7 -1.88755 -0.538865
3.44975 4.7 1.88755 -0.538865
3.33547 4.7 -1.88755 -0.552278
3.33547 4.7 1.88755 -0.552278
3.22362 4.7 -1.88755 -0.565943
3.22362 4.7 1.88755 -0.565943
3.11414 4.7 -1.88755 -0.57986
3.11414 4.7 1.88755 -0.57986
3.00699 4.7 -1.88755 -0.594028
3.00699 4.7 1.88755 -0.594028
2.90212 4.7 -1.88755 -0.608444
2.90212 4.7 1.88755 -0.608444
2.79947 4.7 -1.88755 -0.623106
2.79947 4.7 1.88755 -0.623106
2.69901 4.7 -1.88755 -0.63801
2.69901 4.7 1.88755 -0.63801
2.60068 4.7 -1.88755 -0.653151
2.60068 4.7 1.88755 -0.653151
2.50444 4.7 -1.88755 -0.668524
2.50444 4.7 1.88755 -0.668524
2.41024 4.7 -1.88755 -0.684123
2.41024 4.7 1.88755 -0.684123
2.31805 4.7 -1.88755 -0.699939
2.31805 4.7 1.88755 -0.699939
2.22782 4.7 -1.88755 -0.715964
2.22782 4.7 1.88755 -0.715964
2.1395 4.7 -1.88755 -0.732187
2.1395 4.7 1.88755 -0.732187
2.05306 4.7 -1.88755 -0.748598
2.05306 4.7 1.88755 -0.748598
1.96845 4.7 -1.88755 -0.765183
1.96845 4.7 1.88755 -0.765183
1.88565 4.7 -1.88755 -0.781927
1.88565 4.7 1.88755 -0.781927
1.8046 4.7 -1.88755 -0.798814
1.8046 4.7 1.88755 -0.798814
1.72528 4.7 -1.88755 -0.815824
1.72528 4.7 1.88755 -0.815824
1.64764 4.7 -1.88755 -0.832938
1.64764 4.7 1.88755 -0.832938
1.57165 4.7 -1.88755 -0.850133
1.57165 4.7 1.88755 -0.850133
1.49727 4.7 -1.88755 -0.867384
1.49727 4.7 1.88755 -0.867384
1.42448 4.7 -1.88755 -0.884664
1.42448 4.7 1.88755 -0.884664
1.35323 4.7 -1.88755 -0.901945
1.35323 4.7 1.88755 -0.901945
1.2835 4.7 -1.88755 -0.919198
1.2835 4.7 1.88755 -0.919198
1.21524 4.7 -1.88755 -0.93639
1.21524 4.7 1.88755 -0.93639
1.14844 4.7 -1.88755 -0.95349
1.14844 4.7 1.88755 -0.95349
1.08306 4.7 -1.88755 -0.97046
1.08306 4.7 1.88755 -0.97046
1.01907 4.7 -1.88755 -0.987265
1.01907 4.7 1.88755 -0.987265
0.956432 4.7 -1.88755 -1.00387
0.956432 4.7 1.88755 -1.00387
0.89513 4.7 -1.88755 -1.02022
0.89513 4.7 1.88755 -1.02022
0.83513 4.7 -1.88755 -1.0363
0.83513 4.7 1.88755 -1.0363
0.775018 4.7 -1.88755 -1.05228
0.775018 4.7 1.88755 -1.05228
0.714907 4.7 -1.88755 -1.06829
0.714907 4.7 1.88755 -1.06829
0.654795 4.7 -1.88755 -1.08426
0.654795 4.7 1.88755 -1.08426
0.594684 4.7 -1.88755 -1.10015
0.594684 4.7 1.88755 -1.10015
0.534572 4.7 -1.88755 -1.11591
0.534572 4.7 1.88755 -1.11591
0.47446 4.7 -1.88755 -1.13149
0.47446 4.7 1.88755 -1.13149
0.414349 4.7 -1.88755 -1.14686
0.414349 4.7 1.88755 -1.14686
0.354237 4.7 -1.88755 -1.16196
0.354237 4.7 1.88755 -1.16196
0.294126 4.7 -1.88755 -1.17675
0.294126 4.7 1.88755 -1.17675
0.234014 4.7 -1.88755 -1.19117
0.234014 4.7 1.88755 -1.19117
0.173903 4.7 -1.88755 -1.20519
0.173903 4.7 1.88755 -1.20519
0.113791 4.7 -1.88755 -1.21875
0.113791 4.7 1.88755 -1.21875
0.0536798 4.7 -1.88755 -1.23182
0.0536798 4.7 1.88755 -1.23182
-0.00643172 4.7 -1.88755 -1.24435
-0.00643172 4.7 1.88755 -1.24435
-0.0665432 4.7 -1.88755 -1.25631
-0.0665432 4.7 1.88755 -1.25631
-0.126655 4.7 -1.88755 -1.26767
-0.126655 4.7 1.88755 -1.26767
-0.186766 4.7 -1.88755 -1.2784
-0.186766 4.7 1.88755 -1.2784
-0.246878 4.7 -1.88755 -1.28848
-0.246878 4.7 1.88755 -1.28848
-0.306989 4.7 -1.88755 -1.29788
-0.306989 4.7 1.88755 -1.29788
-0.367101 4.7 -1.88755 -1.30661
-0.367101 4.7 1.88755 -1.30661
-0.427212 4.7 -1.88755 -1.31465
-0.427212 4.7 1.88755 -1.31465
-0.487324 4.7 -1.88755 -1.322
-0.487324 4.7 1.88755 -1.322
-0.547435 4.7 -1.88755 -1.32867
-0.547435 4.7 1.88755 -1.32867
-0.607547 4.7 -1.88755 -1.33468
-0.607547 4.7 1.88755 -1.33468
-0.667658 4.7 -1.88755 -1.34005
-0.667658 4.7 1.88755 -1.34005
-0.72777 4.7 -1.88755 -1.34479
-0.72777 4.7 1.88755 -1.34479
-0.787882 4.7 -1.88755 -1.34894
-0.787882 4.7 1.88755 -1.34894
-0.847993 4.7 -1.88755 -1.35257
-0.847993 4.7 1.88755 -1.35257
-0.907993 4.7 -1.88755 -1.35566
-0.907993 4.7 1.88755 -1.35566
-0.970739 4.7 -1.88755 -1.35832
-0.970739 4.7 1.88755 -1.35832
-1.03636 4.7 -1.88755 -1.36061
-1.03636 4.7 1.88755 -1.36061
-1.10498 4.7 -1.88755 -1.36252
-1.10498 4.7 1.88755 -1.36252
-1.17674 4.7 -1.88755 -1.36403
-1.17674 4.7 1.88755 -1.36403
-1.25179 4.7 -1.88755 -1.36516
-1.25179 4.7 1.88755 -1.36516
-1.33028 4.7 -1.88755 -1.36591
-1.33028 4.7 1.88755 -1.36591
-1.41235 4.7 -1.88755 -1.36629
-1.41235 4.7 1.88755 -1.36629
-1.49818 4.7 -1.88755 -1.36632
-1.49818 4.7 1.88755 -1.36632
-1.58795 4.7 -1.88755 -1.36601
-1.58795 4.7 1.88755 -1.36601
-1.68182 4.7 -1.88755 -1.36539
-1.68182 4.7 1.88755 -1.36539
-1.77998 4.7 -1.88755 -1.36447
-1.77998 4.7 1.88755 -1.36447
-1.88265 4.7 -1.88755 -1.36329
-1.88265 4.7 1.88755 -1.36329
-1.99001 4.7 -1.88755 -1.36185
-1.99001 4.7 1.88755 -1.36185
-2.10228 4.7 -1.88755 -1.36019
-2.10228 4.7 1.88755 -1.36019
-2.2197 4.7 -1.88755 -1.35831
-2.2197 4.7 1.88755 -1.35831
-2.34248 4.7 -1.88755 -1.35624
-2.34248 4.7 1.88755 -1.35624
-2.47089 4.7 -1.88755 -1.35398
-2.47089 4.7 1.88755 -1.35398
-2.60518 4.7 -1.88755 -1.35156
-2.60518 4.7 1.88755 -1.35156
-2.74561 4.7 -1.88755 -1.34896
-2.74561 4.7 1.88755 -1.34896
-2.89248 4.7 -1.88755 -1.3462
-2.89248 4.7 1.88755 -1.3462
-3.04606 4.7 -1.88755 -1.34328
-3.04606 4.7 1.88755 -1.34328
-3.20668 4.7 -1.88755 -1.34021
-3.20668 4.7 1.88755 -1.34021
-3.37464 4.7 -1.88755 -1.33698
-3.37464 4.7 1.88755 -1.33698
-3.5503 4.7 -1.88755 -1.33359
-3.5503 4.7 1.88755 -1.33359
-3.73399 4.7 -1.88755 -1.33003
-3.73399 4.7 1.88755 -1.33003
-3.9261 4.7 -1.88755 -1.32631
-3.9261 4.7 1.88755 -1.32631
-4.127 4.7 -1.88755 -1.32241
-4.127 4.7 1.88755 -1.32241
-4.33709 4.7 -1.88755 -1.31833
-4.33709 4.7 1.88755 -1.31833
-4.5568 4.7 -1.88755 -1.31406
-4.5568 4.7 1.88755 -1.31406
-4.77651 4.7 -1.88755 -1.30969
-4.77651 4.7 1.88755 -1.30969
-4.99551 4.7 -1.88755 -1.30533
-4.99551 4.7 1.88755 -1.30533
-5.21381 4.7 -1.88755 -1.30099
-5.21381 4.7 1.88755 -1.30099
-5.43139 4.7 -1.88755 -1.29666
-5.43139 4.7 1.88755 -1.29666
-5.64827 4.7 -1.88755 -1.29234
-5.64827 4.7 1.88755 -1.29234
-5.86445 4.7 -1.88755 -1.28803
-5.86445 4.7 1.88755 -1.28803
-6.07993 4.7 -1.88755 -1.28374
-6.07993 4.7 1.88755 -1.28374
-6.29471 4.7 -1.88755 -1.27947
-6.29471 4.7 1.88755 -1.27947
-6.5088 4.7 -1.88755 -1.27521
-6.5088 4.7 1.88755 -1.27521
-6.72219 4.7 -1.88755 -1.27096
-6.72219 4.7 1.88755 -1.27096
-6.9349 4.7 -1.88755 -1.26672
-6.9349 4.7 1.88755 -1.26672
-7.14691 4.7 -1.88755 -1.2625
-7.14691 4.7 1.88755 -1.2625
-7.35824 4.7 -1.88755 -1.2583
-7.35824 4.7 1.88755 -1.2583
-7.56889 4.7 -1.88755 -1.2541
-7.56889 4.7 1.88755 -1.2541
-7.77885 4.7 -1.88755 -1.24992
-7.77885 4.7 1.88755 -1.24992
-7.98813 4.7 -1.88755 -1.24576
-7.98813 4.7 1.88755 -1.24576
-8.19674 4.7 -1.88755 -1.24161
-8.19674 4.7 1.88755 -1.24161
-8.40467 4.7 -1.88755 -1.23747
-8.40467 4.7 1.88755 -1.23747
-8.61193 4.7 -1.88755 -1.23334
-8.61193 4.7 1.88755 -1.23334
-8.81852 4.7 -1.88755 -1.22923
-8.81852 4.7 1.88755 -1.22923
-9.02444 4.7 -1.88755 -1.22513
-9.02444 4.7 1.88755 -1.22513
-9.2297 4.7 -1.88755 -1.22104
-9.2297 4.7 1.88755 -1.22104
-9.43428 4.7 -1.88755 -1.21697
-9.43428 4.7 1.88755 -1.21697
-9.63821 4.7 -1.88755 -1.21291
-9.63821 4.7 1.88755 -1.21291
-9.84148 4.7 -1.88755 -1.20887
-9.84148 4.7 1.88755 -1.20887
-10.0441 4.7 -1.88755 -1.20484
-10.0441 4.7 1.88755 -1.20484
-10.246 4.7 -1.88755 -1.20082
-10.246 4.7 1.88755 -1.20082
-10.4473 4.7 -1.88755 -1.19681
-10.4473 4.7 1.88755 -1.19681
-10.648 4.7 -1.88755 -1.19283
-10.648 4.7 1.88755 -1.19283
-10.848 4.7 1.88755 -1.18876
-10.848 4.7 -1.88755 -1.18876
-60.848 4.7 1.88755 -0.205287
-59.848 4.7 1.88755 -0.205287
-59.848 4.7 -1.88755 -0.205287
-60.848 4.7 -1.88755 -0.205287
-58.8506 4.7 1.88755 -0.224598
-58.8506 4.7 -1.88755 -0.224598
-57.8559 4.7 1.88755 -0.243937
-57.8559 4.7 -1.88755 -0.243937
-56.8639 4.7 1.88755 -0.263294
-56.8639 4.7 -1.88755 -0.263294
-55.8744 4.7 1.88755 -0.282662
-55.8744 4.7 -1.88755 -0.282662
-54.8876 4.7 1.88755 -0.302034
-54.8876 4.7 -1.88755 -0.302034
-53.9034 4.7 1.88755 -0.321403
-53.9034 4.7 -1.88755 -0.321403
-52.9218 4.7 1.88755 -0.340764
-52.9218 4.7 -1.88755 -0.340764
-51.9429 4.7 1.88755 -0.36011
-51.9429 4.7 -1.88755 -0.36011
-50.9665 4.7 1.88755 -0.379437
-50.9665 4.7 -1.88755 -0.379437
-49.9927 4.7 1.88755 -0.398739
-49.9927 4.7 -1.88755 -0.398739
-49.0215 4.7 1.88755 -0.418013
-49.0215 4.7 -1.88755 -0.418013
-48.0528 4.7 1.88755 -0.437255
-48.0528 4.7 -1.88755 -0.437255
-47.0867 4.7 1.88755 -0.456463
-47.0867 4.7 -1.88755 -0.456463
-46.1232 4.7 1.88755 -0.475632
-46.1232 4.7 -1.88755 -0.475632
-45.1622 4.7 1.88755 -0.494761
-45.1622 4.7 -1.88755 -0.494761
-44.2038 4.7 1.88755 -0.513848
-44.2038 4.7 -1.88755 -0.513848
-43.248 4.7 1.88755 -0.532891
-43.248 4.7 -1.88755 -0.532891
-42.2946 4.7 1.88755 -0.551889
-42.2946 4.7 -1.88755 -0.551889
-41.3438 4.7 1.88755 -0.57084
-41.3438 4.7 -1.88755 -0.57084
-40.3955 4.7 1.88755 -0.589743
-40.3955 4.7 -1.88755 -0.589743
-39.4497 4.7 1.88755 -0.608597
-39.4497 4.7 -1.88755 -0.608597
-38.5065 4.7 1.88755 -0.627402
-38.5065 4.7 -1.88755 -0.627402
-37.5657 4.7 1.88755 -0.646158
-37.5657 4.7 -1.88755 -0.646158
-36.6274 4.7 1.88755 -0.664863
-36.6274 4.7 -1.88755 -0.664863
-35.6916 4.7 1.88755 -0.683518
-35.6916 4.7 -1.88755 -0.683518
-34.7583 4.7 1.88755 -0.702122
-34.7583 4.7 -1.88755 -0.702122
-33.8275 4.7 1.88755 -0.720675
-33.8275 4.7 -1.88755 -0.720675
-32.8991 4.7 1.88755 -0.739178
-32.8991 4.7 -1.88755 -0.739178
-31.9732 4.7 1.88755 -0.757629
-31.9732 4.7 -1.88755 -0.757629
-31.0498 4.7 1.88755 -0.77603
-31.0498 4.7 -1.88755 -0.77603
-30.1288 4.7 1.88755 -0.79438
-30.1288 4.7 -1.88755 -0.79438
-29.2102 4.7 1.88755 -0.81268
-29.2102 4.7 -1.88755 -0.81268
-28.2941 4.7 1.88755 -0.83093
-28.2941 4.7 -1.88755 -0.83093
-27.3804 4.7 1.88755 -0.849129
-27.3804 4.7 -1.88755 -0.849129
-26.4667 4.7 1.88755 -0.867302
-26.4667 4.7 -1.88755 -0.867302
-25.5929 4.7 1.88755 -0.885077
-25.5929 4.7 -1.88755 -0.885077
-24.7573 4.7 1.88755 -0.902074
-24.7573 4.7 -1.88755 -0.902074
-23.9582 4.7 1.88755 -0.918326
-23.9582 4.7 -1.88755 -0.918326
-23.1941 4.7 1.88755 -0.933867
-23.1941 4.7 -1.88755 -0.933867
-22.4633 4.7 1.88755 -0.948729
-22.4633 4.7 -1.88755 -0.948729
-21.7645 4.7 1.88755 -0.96294
-21.7645 4.7 -1.88755 -0.96294
-21.0962 4.7 1.88755 -0.976529
-21.0962 4.7 -1.88755 -0.976529
-20.4571 4.7 1.88755 -0.989524
-20.4571 4.7 -1.88755 -0.989524
-19.8459 4.7 1.88755 -1.00195
-19.8459 4.7 -1.88755 -1.00195
-19.2615 4.7 1.88755 -1.01383
-19.2615 4.7 -1.88755 -1.01383
-18.7026 4.7 1.88755 -1.0252
-18.7026 4.7 -1.88755 -1.0252
-18.1681 4.7 1.88755 -1.03606
-18.1681 4.7 -1.88755 -1.03606
-17.6569 4.7 1.88755 -1.04646
-17.6569 4.7 -1.88755 -1.04646
-17.1681 4.7 1.88755 -1.05639
-17.1681 4.7 -1.88755 -1.05639
-16.7007 4.7 1.88755 -1.06589
-16.7007 4.7 -1.88755 -1.06589
-16.2537 4.7 1.88755 -1.07498
-16.2537 4.7 -1.88755 -1.07498
-15.8262 4.7 1.88755 -1.08367
-15.8262 4.7 -1.88755 -1.08367
-15.4174 4.7 1.88755 -1.09198
-15.4174 4.7 -1.88755 -1.09198
-15.0265 4.7 1.88755 -1.09993
-15.0265 4.7 -1.88755 -1.09993
-14.6526 4.7 1.88755 -1.10753
-14.6526 4.7 -1.88755 -1.10753
-14.2951 4.7 1.88755 -1.1148
-14.2951 4.7 -1.88755 -1.1148
-13.9532 4.7 1.88755 -1.12175
-13.9532 4.7 -1.88755 -1.12175
-13.6263 4.7 1.88755 -1.12839
-13.6263 4.7 -1.88755 -1.12839
-13.3136 4.7 1.88755 -1.13475
-13.3136 4.7 -1.88755 -1.13475
-13.0146 4.7 1.88755 -1.14082
-13.0146 4.7 -1.88755 -1.14082
-12.7287 4.7 1.88755 -1.14664
-12.7287 4.7 -1.88755 -1.14664
-12.4552 4.7 1.88755 -1.15219
-12.4552 4.7 -1.88755 -1.15219
-12.1937 4.7 1.88755 -1.15751
-12.1937 4.7 -1.88755 -1.15751
-11.9437 4.7 1.88755 -1.16259
-11.9437 4.7 -1.88755 -1.16259
-11.7045 4.7 1.88755 -1.16745
-11.7045 4.7 -1.88755 -1.16745
-11.4758 4.7 1.88755 -1.1721
-11.4758 4.7 -1.88755 -1.1721
-11.2571 4.7 1.88755 -1.17655
-11.2571 4.7 -1.88755 -1.17655
-11.048 4.7 1.88755 -1.18079
-11.048 4.7 -1.88755 -1.18079
-110.848 4.7 1.88755 0.838566
-109.848 4.7 1.88755 0.838566
-109.848 4.7 -1.88755 0.838566
-110.848 4.7 -1.88755 0.838566
-108.848 4.7 1.88755 0.721672
-108.848 4.7 -1.88755 0.721672
-107.848 4.7 1.88755 0.677938
-107.848 4.7 -1.88755 0.677938
-106.848 4.7 1.88755 0.668438
-106.848 4.7 -1.88755 0.668438
-105.848 4.7 1.88755 0.657218
-105.848 4.7 -1.88755 0.657218
-104.848 4.7 1.88755 0.635562
-104.848 4.7 -1.88755 0.635562
-103.848 4.7 1.88755 0.612305
-103.848 4.7 -1.88755 0.612305
-102.848 4.7 1.88755 0.591574
-102.848 4.7 -1.88755 0.591574
-101.848 4.7 1.88755 0.571861
-101.848 4.7 -1.88755 0.571861
-100.848 4.7 1.88755 0.551917
-100.848 4.7 -1.88755 0.551917
-99.848 4.7 1.88755 0.531926
-99.848 4.7 -1.88755 0.531926
-98.848 4.7 1.88755 0.5122
-98.848 4.7 -1.88755 0.5122
-97.848 4.7 1.88755 0.492712
-97.848 4.7 -1.88755 0.492712
-96.848 4.7 1.88755 0.473373
-96.848 4.7 -1.88755 0.473373
-95.848 4.7 1.88755 0.454167
-95.848 4.7 -1.88755 0.454167
-94.848 4.7 1.88755 0.435104
-94.848 4.7 -1.88755 0.435104
-93.848 4.7 1.88755 0.416175
-93.848 4.7 -1.88755 0.416175
-92.848 4.7 1.88755 0.397368
-92.848 4.7 -1.88755 0.397368
-91.848 4.7 1.88755 0.378674
-91.848 4.7 -1.88755 0.378674
-90.848 4.7 1.88755 0.360086
-90.848 4.7 -1.88755 0.360086
-89.848 4.7 1.88755 0.341598
-89.848 4.7 -1.88755 0.341598
-88.848 4.7 1.88755 0.323202
-88.848 4.7 -1.88755 0.323202
-87.848 4.7 1.88755 0.304895
-87.848 4.7 -1.88755 0.304895
-86.848 4.7 1.88755 0.28667
-86.848 4.7 -1.88755 0.28667
-85.848 4.7 1.88755 0.268516
-85.848 4.7 -1.88755 0.268516
-84.848 4.7 1.88755 0.250433
-84.848 4.7 -1.88755 0.250433
-83.848 4.7 1.88755 0.232425
-83.848 4.7 -1.88755 0.232425
-82.848 4.7 1.88755 0.214476
-82.848 4.7 -1.88755 0.214476
-81.848 4.7 1.88755 0.196576
-81.848 4.7 -1.88755 0.196576
-80.848 4.7 1.88755 0.178729
-80.848 4.7 -1.88755 0.178729
-79.848 4.7 1.88755 0.160921
-79.848 4.7 -1.88755 0.160921
-78.848 4.7 1.88755 0.143138
-78.848 4.7 -1.88755 0.143138
-77.848 4.7 1.88755 0.125375
-77.848 4.7 -1.88755 0.125375
-76.848 4.7 1.88755 0.107622
-76.848 4.7 -1.88755 0.107622
-75.848 4.7 1.88755 0.089863
-75.848 4.7 -1.88755 0.089863
-74.848 4.7 1.88755 0.0720833
-74.848 4.7 -1.88755 0.0720833
-73.848 4.7 1.88755 0.0542677
-73.848 4.7 -1.88755 0.0542677
-72.848 4.7 1.88755 0.036399
-72.848 4.7 -1.88755 0.036399
-71.848 4.7 1.88755 0.0184601
-71.848 4.7 -1.88755 0.0184601