# wallShearStress  POINT_DATA 994
# x y z  wallShearStress_x wallShearStress_y wallShearStress_z
76.848 3.84014e-15 1.88755 -0.000412846 2.43959e-08 0
76.848 3.84014e-15 -1.88755 -0.000412846 2.43959e-08 0
77.848 3.89022e-15 -1.88755 -0.000412846 2.43959e-08 0
77.848 3.89022e-15 1.88755 -0.000412846 2.43959e-08 0
75.8596 3.79065e-15 1.88755 -0.000408659 2.57984e-09 0
75.8596 3.79065e-15 -1.88755 -0.000408659 2.57984e-09 0
74.8826 3.74172e-15 1.88755 -0.000408609 1.0506e-08 -4.33246e-27
74.8826 3.74172e-15 -1.88755 -0.000408609 1.0506e-08 -4.33246e-27
73.9169 3.69337e-15 1.88755 -0.000406095 9.09421e-09 5.75721e-27
73.9169 3.69337e-15 -1.88755 -0.000406095 9.09421e-09 5.75721e-27
72.9624 3.64557e-15 1.88755 -0.000404595 9.76914e-09 7.47054e-27
72.9624 3.64557e-15 -1.88755 -0.000404595 9.76914e-09 7.47054e-27
72.019 3.59833e-15 1.88755 -0.000402661 9.92566e-09 9.05337e-27
72.019 3.59833e-15 -1.88755 -0.000402661 9.92566e-09 9.05337e-27
71.0865 3.55163e-15 1.88755 -0.000400821 1.03157e-08 -1.55575e-61
71.0865 3.55163e-15 -1.88755 -0.000400821 1.03157e-08 -1.55575e-61
70.1648 3.50547e-15 1.88755 -0.000398879 1.07444e-08 0
70.1648 3.50547e-15 -1.88755 -0.000398879 1.07444e-08 0
69.2537 3.45985e-15 1.88755 -0.000396878 1.12441e-08 4.26999e-45
69.2537 3.45985e-15 -1.88755 -0.000396878 1.12441e-08 4.26999e-45
68.3532 3.41476e-15 1.88755 -0.000394813 1.17829e-08 3.09337e-26
68.3532 3.41476e-15 -1.88755 -0.000394813 1.17829e-08 3.09337e-26
67.4632 3.37019e-15 1.88755 -0.000392666 1.23094e-08 -4.96235e-37
67.4632 3.37019e-15 -1.88755 -0.000392666 1.23094e-08 -4.96235e-37
66.5834 3.32613e-15 1.88755 -0.000390447 1.29483e-08 0
66.5834 3.32613e-15 -1.88755 -0.000390447 1.29483e-08 0
65.7138 3.28259e-15 1.88755 -0.000388142 1.3583e-08 -4.03813e-26
65.7138 3.28259e-15 -1.88755 -0.000388142 1.3583e-08 -4.03813e-26
64.8543 3.23955e-15 1.88755 -0.000385758 1.4283e-08 0
64.8543 3.23955e-15 -1.88755 -0.000385758 1.4283e-08 0
64.0048 3.19701e-15 1.88755 -0.000383286 1.48739e-08 4.65563e-26
64.0048 3.19701e-15 -1.88755 -0.000383286 1.48739e-08 4.65563e-26
63.1651 3.15496e-15 1.88755 -0.000380723 1.57308e-08 4.95948e-26
63.1651 3.15496e-15 -1.88755 -0.000380723 1.57308e-08 4.95948e-26
62.3351 3.11339e-15 1.88755 -0.000378067 1.64833e-08 5.25924e-26
62.3351 3.11339e-15 -1.88755 -0.000378067 1.64833e-08 5.25924e-26
61.5147 3.07231e-15 1.88755 -0.000375314 1.73493e-08 -1.2446e-60
61.5147 3.07231e-15 -1.88755 -0.000375314 1.73493e-08 -1.2446e-60
60.7038 3.03171e-15 1.88755 -0.000372463 1.81054e-08 7.43802e-48
60.7038 3.03171e-15 -1.88755 -0.000372463 1.81054e-08 7.43802e-48
59.9024 2.99157e-15 1.88755 -0.000369508 1.90647e-08 1.81114e-71
59.9024 2.99157e-15 -1.88755 -0.000369508 1.90647e-08 1.81114e-71
59.1102 2.9519e-15 1.88755 -0.000366446 1.99578e-08 9.32104e-37
59.1102 2.9519e-15 -1.88755 -0.000366446 1.99578e-08 9.32104e-37
58.3271 2.91269e-15 1.88755 -0.000363272 2.09312e-08 -6.67553e-26
58.3271 2.91269e-15 -1.88755 -0.000363272 2.09312e-08 -6.67553e-26
57.5532 2.87393e-15 1.88755 -0.000359986 2.20078e-08 1.2446e-60
57.5532 2.87393e-15 -1.88755 -0.000359986 2.20078e-08 1.2446e-60
56.7882 2.83562e-15 1.88755 -0.000356579 2.30225e-08 1.04049e-47
56.7882 2.83562e-15 -1.88755 -0.000356579 2.30225e-08 1.04049e-47
56.032 2.79776e-15 1.88755 -0.000353049 2.41535e-08 1.08168e-36
56.032 2.79776e-15 -1.88755 -0.000353049 2.41535e-08 1.08168e-36
55.2846 2.76033e-15 1.88755 -0.000349389 2.53138e-08 7.6651e-26
55.2846 2.76033e-15 -1.88755 -0.000349389 2.53138e-08 7.6651e-26
54.5459 2.72334e-15 1.88755 -0.000345596 2.66827e-08 -7.88483e-26
54.5459 2.72334e-15 -1.88755 -0.000345596 2.66827e-08 -7.88483e-26
53.8157 2.68678e-15 1.88755 -0.000341667 2.79303e-08 1.55575e-61
53.8157 2.68678e-15 -1.88755 -0.000341667 2.79303e-08 1.55575e-61
53.094 2.65063e-15 1.88755 -0.000337592 2.93014e-08 -8.28274e-26
53.094 2.65063e-15 -1.88755 -0.000337592 2.93014e-08 -8.28274e-26
52.3806 2.61491e-15 1.88755 -0.000333371 3.07155e-08 1.43365e-44
52.3806 2.61491e-15 -1.88755 -0.000333371 3.07155e-08 1.43365e-44
51.6755 2.5796e-15 1.88755 -0.000328992 3.23476e-08 -2.48921e-60
51.6755 2.5796e-15 -1.88755 -0.000328992 3.23476e-08 -2.48921e-60
50.9785 2.5447e-15 1.88755 -0.000324455 3.38702e-08 -8.75423e-26
50.9785 2.5447e-15 -1.88755 -0.000324455 3.38702e-08 -8.75423e-26
50.2897 2.51021e-15 1.88755 -0.00031975 3.55555e-08 -8.87126e-26
50.2897 2.51021e-15 -1.88755 -0.00031975 3.55555e-08 -8.87126e-26
49.6088 2.47611e-15 1.88755 -0.000314875 3.72355e-08 8.96471e-26
49.6088 2.47611e-15 -1.88755 -0.000314875 3.72355e-08 8.96471e-26
48.9358 2.44241e-15 1.88755 -0.000309817 3.93585e-08 -9.03329e-26
48.9358 2.44241e-15 -1.88755 -0.000309817 3.93585e-08 -9.03329e-26
48.2705 2.4091e-15 1.88755 -0.000304574 4.11001e-08 1.67677e-44
48.2705 2.4091e-15 -1.88755 -0.000304574 4.11001e-08 1.67677e-44
47.613 2.37617e-15 1.88755 -0.000299135 4.32259e-08 0
47.613 2.37617e-15 -1.88755 -0.000299135 4.32259e-08 0
46.9631 2.34362e-15 1.88755 -0.000293498 4.52427e-08 0
46.9631 2.34362e-15 -1.88755 -0.000293498 4.52427e-08 0
46.3207 2.31146e-15 1.88755 -0.000287657 4.78096e-08 -9.00142e-26
46.3207 2.31146e-15 -1.88755 -0.000287657 4.78096e-08 -9.00142e-26
45.6858 2.27966e-15 1.88755 -0.0002816 5.0039e-08 2.66394e-46
45.6858 2.27966e-15 -1.88755 -0.0002816 5.0039e-08 2.66394e-46
45.0582 2.24823e-15 1.88755 -0.000275322 5.26665e-08 -8.7605e-26
45.0582 2.24823e-15 -1.88755 -0.000275322 5.26665e-08 -8.7605e-26
44.4379 2.21717e-15 1.88755 -0.00026882 5.53147e-08 6.2361e-37
44.4379 2.21717e-15 -1.88755 -0.00026882 5.53147e-08 6.2361e-37
43.8248 2.18647e-15 1.88755 -0.000262091 5.79455e-08 -8.32996e-26
43.8248 2.18647e-15 -1.88755 -0.000262091 5.79455e-08 -8.32996e-26
43.2187 2.15612e-15 1.88755 -0.000255128 6.09249e-08 8.03248e-26
43.2187 2.15612e-15 -1.88755 -0.000255128 6.09249e-08 8.03248e-26
42.6197 2.12612e-15 1.88755 -0.000247934 6.38028e-08 -5.58303e-37
42.6197 2.12612e-15 -1.88755 -0.000247934 6.38028e-08 -5.58303e-37
42.0276 2.09647e-15 1.88755 -0.000240516 6.68145e-08 0
42.0276 2.09647e-15 -1.88755 -0.000240516 6.68145e-08 0
41.4424 2.06717e-15 1.88755 -0.000232889 6.91066e-08 -1.45493e-47
41.4424 2.06717e-15 -1.88755 -0.000232889 6.91066e-08 -1.45493e-47
40.8639 2.0382e-15 1.88755 -0.000225106 7.13925e-08 0
40.8639 2.0382e-15 -1.88755 -0.000225106 7.13925e-08 0
40.2922 2.00957e-15 1.88755 -0.000217266 7.24996e-08 -5.50134e-26
40.2922 2.00957e-15 -1.88755 -0.000217266 7.24996e-08 -5.50134e-26
39.727 1.98127e-15 1.88755 -0.000209479 7.31493e-08 2.3723e-26
39.727 1.98127e-15 -1.88755 -0.000209479 7.31493e-08 2.3723e-26
39.1685 1.9533e-15 1.88755 -0.000201788 7.40746e-08 0
39.1685 1.9533e-15 -1.88755 -0.000201788 7.40746e-08 0
38.6163 1.92565e-15 1.88755 -0.000194146 7.5912e-08 -1.46289e-26
38.6163 1.92565e-15 -1.88755 -0.000194146 7.5912e-08 -1.46289e-26
38.0706 1.89832e-15 1.88755 -0.000186415 7.94464e-08 9.20145e-27
38.0706 1.89832e-15 -1.88755 -0.000186415 7.94464e-08 9.20145e-27
37.5312 1.87131e-15 1.88755 -0.000178402 8.45483e-08 3.09278e-27
37.5312 1.87131e-15 -1.88755 -0.000178402 8.45483e-08 3.09278e-27
36.998 1.84461e-15 1.88755 -0.000169918 9.11943e-08 -5.48852e-38
36.998 1.84461e-15 -1.88755 -0.000169918 9.11943e-08 -5.48852e-38
36.4711 1.81822e-15 1.88755 -0.000160923 9.76561e-08 -2.26392e-72
36.4711 1.81822e-15 -1.88755 -0.000160923 9.76561e-08 -2.26392e-72
35.9502 1.79214e-15 1.88755 -0.000151421 1.0514e-07 0
35.9502 1.79214e-15 -1.88755 -0.000151421 1.0514e-07 0
35.4353 1.76636e-15 1.88755 -0.000141313 1.13531e-07 -2.96724e-26
35.4353 1.76636e-15 -1.88755 -0.000141313 1.13531e-07 -2.96724e-26
34.9264 1.74087e-15 1.88755 -0.000130457 1.23285e-07 0
34.9264 1.74087e-15 -1.88755 -0.000130457 1.23285e-07 0
34.4234 1.71568e-15 1.88755 -0.000118837 1.33157e-07 -3.8065e-37
34.4234 1.71568e-15 -1.88755 -0.000118837 1.33157e-07 -3.8065e-37
33.9204 1.6905e-15 1.88755 -0.000106329 1.44258e-07 -4.72183e-37
33.9204 1.6905e-15 -1.88755 -0.000106329 1.44258e-07 -4.72183e-37
33.4352 1.6662e-15 1.88755 -9.29884e-05 1.56498e-07 -2.06676e-47
33.4352 1.6662e-15 -1.88755 -9.29884e-05 1.56498e-07 -2.06676e-47
32.9672 1.64276e-15 1.88755 -7.9015e-05 1.69351e-07 0
32.9672 1.64276e-15 -1.88755 -7.9015e-05 1.69351e-07 0
32.5157 1.62016e-15 1.88755 -6.4446e-05 1.82671e-07 8.79259e-37
32.5157 1.62016e-15 -1.88755 -6.4446e-05 1.82671e-07 8.79259e-37
32.0803 1.59835e-15 1.88755 -4.92866e-05 1.9652e-07 1.44093e-25
32.0803 1.59835e-15 -1.88755 -4.92866e-05 1.9652e-07 1.44093e-25
31.6602 1.57731e-15 1.88755 -3.35718e-05 2.10607e-07 1.23664e-36
31.6602 1.57731e-15 -1.88755 -3.35718e-05 2.10607e-07 1.23664e-36
31.255 1.55702e-15 1.88755 -1.7327e-05 2.25096e-07 -1.98647e-25
31.255 1.55702e-15 -1.88755 -1.7327e-05 2.25096e-07 -1.98647e-25
30.8642 1.53745e-15 1.88755 -5.88001e-07 2.39692e-07 6.13331e-44
30.8642 1.53745e-15 -1.88755 -5.88001e-07 2.39692e-07 6.13331e-44
30.4871 1.51857e-15 1.88755 1.6608e-05 2.54546e-07 1.92768e-36
30.4871 1.51857e-15 -1.88755 1.6608e-05 2.54546e-07 1.92768e-36
30.1235 1.50036e-15 1.88755 3.42125e-05 2.69093e-07 -8.25731e-47
30.1235 1.50036e-15 -1.88755 3.42125e-05 2.69093e-07 -8.25731e-47
29.7727 1.48279e-15 1.88755 5.21756e-05 2.83931e-07 -6.92774e-44
29.7727 1.48279e-15 -1.88755 5.21756e-05 2.83931e-07 -6.92774e-44
29.4343 1.46585e-15 1.88755 7.04427e-05 2.9845e-07 -1.94616e-25
29.4343 1.46585e-15 -1.88755 7.04427e-05 2.9845e-07 -1.94616e-25
29.1079 1.4495e-15 1.88755 8.89592e-05 3.12867e-07 0
29.1079 1.4495e-15 -1.88755 8.89592e-05 3.12867e-07 0
28.793 1.43374e-15 1.88755 0.000107667 3.26778e-07 -1.7866e-36
28.793 1.43374e-15 -1.88755 0.000107667 3.26778e-07 -1.7866e-36
28.4893 1.41853e-15 1.88755 0.000126504 3.40107e-07 2.74128e-25
28.4893 1.41853e-15 -1.88755 0.000126504 3.40107e-07 2.74128e-25
28.1964 1.40386e-15 1.88755 0.000145413 3.5294e-07 -2.21846e-36
28.1964 1.40386e-15 -1.88755 0.000145413 3.5294e-07 -2.21846e-36
27.9138 1.38971e-15 1.88755 0.000164336 3.64921e-07 0
27.9138 1.38971e-15 -1.88755 0.000164336 3.64921e-07 0
27.6412 1.37606e-15 1.88755 0.000183214 3.76447e-07 3.7333e-25
27.6412 1.37606e-15 -1.88755 0.000183214 3.76447e-07 3.7333e-25
27.3783 1.36289e-15 1.88755 0.000201992 3.86921e-07 -4.1114e-25
27.3783 1.36289e-15 -1.88755 0.000201992 3.86921e-07 -4.1114e-25
27.1246 1.35019e-15 1.88755 0.000220616 3.96893e-07 0
27.1246 1.35019e-15 -1.88755 0.000220616 3.96893e-07 0
26.88 1.33794e-15 1.88755 0.000239037 4.05672e-07 0
26.88 1.33794e-15 -1.88755 0.000239037 4.05672e-07 0
26.644 1.32612e-15 1.88755 0.000257213 4.13713e-07 -1.99136e-59
26.644 1.32612e-15 -1.88755 0.000257213 4.13713e-07 -1.99136e-59
26.4164 1.31472e-15 1.88755 0.000275092 4.21067e-07 -2.93952e-25
26.4164 1.31472e-15 -1.88755 0.000275092 4.21067e-07 -2.93952e-25
26.1968 1.30373e-15 1.88755 0.000292637 4.27151e-07 0
26.1968 1.30373e-15 -1.88755 0.000292637 4.27151e-07 0
25.985 1.29312e-15 1.88755 0.000309813 4.32498e-07 -9.30466e-47
25.985 1.29312e-15 -1.88755 0.000309813 4.32498e-07 -9.30466e-47
25.7807 1.28289e-15 1.88755 0.000326583 4.36614e-07 0
25.7807 1.28289e-15 -1.88755 0.000326583 4.36614e-07 0
25.5836 1.27302e-15 1.88755 0.000342919 4.40043e-07 1.0766e-46
25.5836 1.27302e-15 -1.88755 0.000342919 4.40043e-07 1.0766e-46
25.3935 1.2635e-15 1.88755 0.000358798 4.42167e-07 1.44891e-70
25.3935 1.2635e-15 -1.88755 0.000358798 4.42167e-07 1.44891e-70
25.2101 1.25432e-15 1.88755 0.000374198 4.43432e-07 1.70226e-36
25.2101 1.25432e-15 -1.88755 0.000374198 4.43432e-07 1.70226e-36
25.0332 1.24546e-15 1.88755 0.000389098 4.43513e-07 -1.82647e-36
25.0332 1.24546e-15 -1.88755 0.000389098 4.43513e-07 -1.82647e-36
24.8626 1.23692e-15 1.88755 0.000403487 4.42839e-07 0
24.8626 1.23692e-15 -1.88755 0.000403487 4.42839e-07 0
24.698 1.22867e-15 1.88755 0.000417356 4.41107e-07 -2.87448e-25
24.698 1.22867e-15 -1.88755 0.000417356 4.41107e-07 -2.87448e-25
24.5393 1.22072e-15 1.88755 0.000430693 4.38508e-07 -2.23248e-36
24.5393 1.22072e-15 -1.88755 0.000430693 4.38508e-07 -2.23248e-36
24.3861 1.21306e-15 1.88755 0.000443492 4.34948e-07 -3.26997e-25
24.3861 1.21306e-15 -1.88755 0.000443492 4.34948e-07 -3.26997e-25
24.2384 1.20566e-15 1.88755 0.000455748 4.30409e-07 2.65532e-43
24.2384 1.20566e-15 -1.88755 0.000455748 4.30409e-07 2.65532e-43
24.0959 1.19852e-15 1.88755 0.000467459 4.24941e-07 -2.69026e-36
24.0959 1.19852e-15 -1.88755 0.000467459 4.24941e-07 -2.69026e-36
23.9585 1.19164e-15 1.88755 0.000478623 4.18341e-07 -2.85465e-36
23.9585 1.19164e-15 -1.88755 0.000478623 4.18341e-07 -2.85465e-36
23.8259 1.185e-15 1.88755 0.000489242 4.10864e-07 3.02505e-36
23.8259 1.185e-15 -1.88755 0.000489242 4.10864e-07 3.02505e-36
23.698 1.1786e-15 1.88755 0.000499316 4.02258e-07 0
23.698 1.1786e-15 -1.88755 0.000499316 4.02258e-07 0
23.5746 1.17242e-15 1.88755 0.000508848 3.92505e-07 1.6921e-36
23.5746 1.17242e-15 -1.88755 0.000508848 3.92505e-07 1.6921e-36
23.4557 1.16646e-15 1.88755 0.000517841 3.81674e-07 -1.7865e-36
23.4557 1.16646e-15 -1.88755 0.000517841 3.81674e-07 -1.7865e-36
23.3409 1.16071e-15 1.88755 0.000526299 3.69614e-07 0
23.3409 1.16071e-15 -1.88755 0.000526299 3.69614e-07 0
23.2302 1.15517e-15 1.88755 0.000534221 3.55901e-07 -2.72785e-25
23.2302 1.15517e-15 -1.88755 0.000534221 3.55901e-07 -2.72785e-25
23.1234 1.14982e-15 1.88755 0.000541607 3.40465e-07 -2.87069e-25
23.1234 1.14982e-15 -1.88755 0.000541607 3.40465e-07 -2.87069e-25
23.0203 1.14466e-15 1.88755 0.000548453 3.23117e-07 3.98273e-59
23.0203 1.14466e-15 -1.88755 0.000548453 3.23117e-07 3.98273e-59
22.921 1.13969e-15 1.88755 0.000554756 3.03632e-07 2.3063e-36
22.921 1.13969e-15 -1.88755 0.000554756 3.03632e-07 2.3063e-36
22.8251 1.13489e-15 1.88755 0.00056051 2.81626e-07 0
22.8251 1.13489e-15 -1.88755 0.00056051 2.81626e-07 0
22.7326 1.13026e-15 1.88755 0.000565708 2.56394e-07 -3.48698e-25
22.7326 1.13026e-15 -1.88755 0.000565708 2.56394e-07 -3.48698e-25
22.6435 1.12579e-15 1.88755 0.00057033 2.2722e-07 3.65255e-25
22.6435 1.12579e-15 -1.88755 0.00057033 2.2722e-07 3.65255e-25
22.5574 1.12148e-15 1.88755 0.000574354 1.93338e-07 1.39074e-36
22.5574 1.12148e-15 -1.88755 0.000574354 1.93338e-07 1.39074e-36
22.4744 1.11733e-15 1.88755 0.000577751 1.53463e-07 -1.99895e-25
22.4744 1.11733e-15 -1.88755 0.000577751 1.53463e-07 -1.99895e-25
22.3944 1.11332e-15 1.88755 0.000580478 1.05756e-07 0
22.3944 1.11332e-15 -1.88755 0.000580478 1.05756e-07 0
22.3172 1.10945e-15 1.88755 0.000582476 4.79609e-08 0
22.3172 1.10945e-15 -1.88755 0.000582476 4.79609e-08 0
22.2427 1.10572e-15 1.88755 0.000583665 -2.33222e-08 3.95367e-43
22.2427 1.10572e-15 -1.88755 0.000583665 -2.33222e-08 3.95367e-43
22.1708 1.10212e-15 1.88755 0.000583937 -1.13342e-07 2.37375e-25
22.1708 1.10212e-15 -1.88755 0.000583937 -1.13342e-07 2.37375e-25
22.1015 1.09865e-15 1.88755 0.000583129 -2.2992e-07 -2.47349e-25
22.1015 1.09865e-15 -1.88755 0.000583129 -2.2992e-07 -2.47349e-25
22.0347 1.0953e-15 1.88755 0.000581035 -3.85571e-07 7.96546e-59
22.0347 1.0953e-15 -1.88755 0.000581035 -3.85571e-07 7.96546e-59
21.9702 1.09208e-15 1.88755 0.000577253 -6.00413e-07 5.58833e-47
21.9702 1.09208e-15 -1.88755 0.000577253 -6.00413e-07 5.58833e-47
21.908 1.08896e-15 1.88755 0.000571555 -9.2372e-07 0
21.908 1.08896e-15 -1.88755 0.000571555 -9.2372e-07 0
21.848 1.73472e-15 1.88755 0.000561849 -1.39893e-06 0
21.848 1.73472e-15 -1.88755 0.000561849 -1.39893e-06 0
21.7876 0.000188157 1.88755 0.00055148 -2.81187e-06 7.44634e-23
21.7876 0.000188157 -1.88755 0.00055148 -2.81187e-06 7.44634e-23
21.7272 0.00075262 1.88755 0.000547412 -5.46572e-06 3.6553e-26
21.7272 0.00075262 -1.88755 0.000547412 -5.46572e-06 3.6553e-26
21.6668 0.00169337 1.88755 0.000548032 -8.66897e-06 -3.02305e-22
21.6668 0.00169337 -1.88755 0.000548032 -8.66897e-06 -3.02305e-22
21.6063 0.00301036 1.88755 0.000549077 -1.20139e-05 -6.0841e-22
21.6063 0.00301036 -1.88755 0.000549077 -1.20139e-05 -6.0841e-22
21.546 0.00470355 1.88755 0.000549616 -1.53297e-05 9.66177e-28
21.546 0.00470355 -1.88755 0.000549616 -1.53297e-05 9.66177e-28
21.4856 0.00677288 1.88755 0.000549868 -1.86233e-05 1.23266e-21
21.4856 0.00677288 -1.88755 0.000549868 -1.86233e-05 1.23266e-21
21.4252 0.00921825 1.88755 0.000549865 -2.1917e-05 1.24149e-21
21.4252 0.00921825 -1.88755 0.000549865 -2.1917e-05 1.24149e-21
21.3649 0.0120396 1.88755 0.000549543 -2.52021e-05 1.24972e-21
21.3649 0.0120396 -1.88755 0.000549543 -2.52021e-05 1.24972e-21
21.3045 0.0152368 1.88755 0.000548898 -2.84677e-05 -2.51754e-25
21.3045 0.0152368 -1.88755 0.000548898 -2.84677e-05 -2.51754e-25
21.2442 0.0188097 1.88755 0.000547966 -3.17096e-05 1.26642e-21
21.2442 0.0188097 -1.88755 0.000547966 -3.17096e-05 1.26642e-21
21.1839 0.0227581 1.88755 0.000546783 -3.49265e-05 -3.70107e-25
21.1839 0.0227581 -1.88755 0.000546783 -3.49265e-05 -3.70107e-25
21.1237 0.0270821 1.88755 0.000545384 -3.81165e-05 3.14154e-25
21.1237 0.0270821 -1.88755 0.000545384 -3.81165e-05 3.14154e-25
21.0634 0.0317812 1.88755 0.000543803 -4.12786e-05 2.58291e-21
21.0634 0.0317812 -1.88755 0.000543803 -4.12786e-05 2.58291e-21
21.0032 0.0368555 1.88755 0.000542071 -4.44119e-05 2.60029e-21
21.0032 0.0368555 -1.88755 0.000542071 -4.44119e-05 2.60029e-21
20.9431 0.0423046 1.88755 0.000540222 -4.75169e-05 2.61722e-21
20.9431 0.0423046 -1.88755 0.000540222 -4.75169e-05 2.61722e-21
20.8829 0.0481284 1.88755 0.000538288 -5.05941e-05 5.26873e-21
20.8829 0.0481284 -1.88755 0.000538288 -5.05941e-05 5.26873e-21
20.8228 0.0543267 1.88755 0.000536303 -5.36446e-05 2.6507e-21
20.8228 0.0543267 -1.88755 0.000536303 -5.36446e-05 2.6507e-21
20.7628 0.0608992 1.88755 0.000534305 -5.66701e-05 -3.44751e-27
20.7628 0.0608992 -1.88755 0.000534305 -5.66701e-05 -3.44751e-27
20.7027 0.0678456 1.88755 0.000532346 -5.96739e-05 6.53877e-25
20.7027 0.0678456 -1.88755 0.000532346 -5.96739e-05 6.53877e-25
20.6428 0.0751657 1.88755 0.000530491 -6.26613e-05 -3.30705e-25
20.6428 0.0751657 -1.88755 0.000530491 -6.26613e-05 -3.30705e-25
20.5828 0.0828592 1.88755 0.000528824 -6.56411e-05 4.89735e-25
20.5828 0.0828592 -1.88755 0.000528824 -6.56411e-05 4.89735e-25
20.523 0.0909258 1.88755 0.00052745 -6.86255e-05 7.17465e-43
20.523 0.0909258 -1.88755 0.00052745 -6.86255e-05 7.17465e-43
20.4631 0.0993652 1.88755 0.000526503 -7.16316e-05 -1.01949e-37
20.4631 0.0993652 -1.88755 0.000526503 -7.16316e-05 -1.01949e-37
20.4034 0.108177 1.88755 0.000526166 -7.46825e-05 -3.38845e-25
20.4034 0.108177 -1.88755 0.000526166 -7.46825e-05 -3.38845e-25
20.3437 0.117361 1.88755 0.000526667 -7.78073e-05 5.57113e-21
20.3437 0.117361 -1.88755 0.000526667 -7.78073e-05 5.57113e-21
20.284 0.126917 1.88755 0.000528454 -8.10597e-05 -5.60276e-21
20.284 0.126917 -1.88755 0.000528454 -8.10597e-05 -5.60276e-21
20.2244 0.136844 1.88755 0.000531775 -8.44509e-05 8.61544e-26
20.2244 0.136844 -1.88755 0.000531775 -8.44509e-05 8.61544e-26
20.1649 0.147142 1.88755 0.000539063 -8.82407e-05 -8.60842e-26
20.1649 0.147142 -1.88755 0.000539063 -8.82407e-05 -8.60842e-26
20.1058 0.157553 1.88755 0.000547148 -9.12571e-05 1.75143e-25
20.1058 0.157553 -1.88755 0.000547148 -9.12571e-05 1.75143e-25
20.0454 0.168194 1.88755 0.000548598 -9.22269e-05 -5.65051e-21
20.0454 0.168194 -1.88755 0.000548598 -9.22269e-05 -5.65051e-21
19.9837 0.17907 1.88755 0.000544752 -9.19222e-05 5.58184e-21
19.9837 0.17907 -1.88755 0.000544752 -9.19222e-05 5.58184e-21
19.9206 0.190185 1.88755 0.000540066 -9.12287e-05 2.57139e-38
19.9206 0.190185 -1.88755 0.000540066 -9.12287e-05 2.57139e-38
19.8561 0.201547 1.88755 0.000535693 -9.05387e-05 5.44706e-21
19.8561 0.201547 -1.88755 0.000535693 -9.05387e-05 5.44706e-21
19.7902 0.213159 1.88755 0.000531506 -8.9871e-05 -5.37861e-21
19.7902 0.213159 -1.88755 0.000531506 -8.9871e-05 -5.37861e-21
19.7228 0.225027 1.88755 0.00052756 -8.92195e-05 -6.46771e-25
19.7228 0.225027 -1.88755 0.00052756 -8.92195e-05 -6.46771e-25
19.654 0.237157 1.88755 0.000523995 -8.86127e-05 5.24474e-21
19.654 0.237157 -1.88755 0.000523995 -8.86127e-05 5.24474e-21
19.5836 0.249555 1.88755 0.000520863 -8.80692e-05 -4.11423e-37
19.5836 0.249555 -1.88755 0.000520863 -8.80692e-05 -4.11423e-37
19.5117 0.262227 1.88755 0.000518154 -8.75915e-05 -5.87747e-39
19.5117 0.262227 -1.88755 0.000518154 -8.75915e-05 -5.87747e-39
19.4382 0.275178 1.88755 0.000515847 -8.71779e-05 -1.00839e-20
19.4382 0.275178 -1.88755 0.000515847 -8.71779e-05 -1.00839e-20
19.363 0.288415 1.88755 0.00051392 -8.68259e-05 -9.95164e-21
19.363 0.288415 -1.88755 0.00051392 -8.68259e-05 -9.95164e-21
19.2863 0.301945 1.88755 0.000512345 -8.6532e-05 1.19515e-24
19.2863 0.301945 -1.88755 0.000512345 -8.6532e-05 1.19515e-24
19.2078 0.315773 1.88755 0.000511095 -8.62925e-05 9.68537e-21
19.2078 0.315773 -1.88755 0.000511095 -8.62925e-05 9.68537e-21
19.1276 0.329906 1.88755 0.000510138 -8.61033e-05 1.9112e-20
19.1276 0.329906 -1.88755 0.000510138 -8.61033e-05 1.9112e-20
19.0456 0.344351 1.88755 0.000509436 -8.59587e-05 2.29524e-24
19.0456 0.344351 -1.88755 0.000509436 -8.59587e-05 2.29524e-24
18.9618 0.359115 1.88755 0.000508957 -8.5853e-05 -5.45273e-41
18.9618 0.359115 -1.88755 0.000508957 -8.5853e-05 -5.45273e-41
18.8761 0.374205 1.88755 0.000508673 -8.57815e-05 5.87747e-39
18.8761 0.374205 -1.88755 0.000508673 -8.57815e-05 5.87747e-39
18.7886 0.389628 1.88755 0.000508562 -8.57398e-05 9.05565e-21
18.7886 0.389628 -1.88755 0.000508562 -8.57398e-05 9.05565e-21
18.6991 0.405391 1.88755 0.000508607 -8.57254e-05 -7.34684e-40
18.6991 0.405391 -1.88755 0.000508607 -8.57254e-05 -7.34684e-40
18.6077 0.421503 1.88755 0.000508785 -8.57356e-05 8.81706e-21
18.6077 0.421503 -1.88755 0.000508785 -8.57356e-05 8.81706e-21
18.5142 0.43797 1.88755 0.000509071 -8.57658e-05 3.05629e-37
18.5142 0.43797 -1.88755 0.000509071 -8.57658e-05 3.05629e-37
18.4187 0.4548 1.88755 0.000509445 -8.58121e-05 -8.5867e-21
18.4187 0.4548 -1.88755 0.000509445 -8.58121e-05 -8.5867e-21
18.3211 0.472002 1.88755 0.000509895 -8.58715e-05 2.07602e-24
18.3211 0.472002 -1.88755 0.000509895 -8.58715e-05 2.07602e-24
18.2213 0.489584 1.88755 0.000510425 -8.59446e-05 -2.03529e-24
18.2213 0.489584 -1.88755 0.000510425 -8.59446e-05 -2.03529e-24
18.1193 0.507553 1.88755 0.000511022 -8.60309e-05 8.2581e-21
18.1193 0.507553 -1.88755 0.000511022 -8.60309e-05 8.2581e-21
18.015 0.52592 1.88755 0.00051166 -8.61259e-05 8.15297e-21
18.015 0.52592 -1.88755 0.00051166 -8.61259e-05 8.15297e-21
17.9085 0.544691 1.88755 0.000512323 -8.6226e-05 -1.61027e-20
17.9085 0.544691 -1.88755 0.000512323 -8.6226e-05 -1.61027e-20
17.7996 0.563878 1.88755 0.000513012 -8.63294e-05 1.93344e-24
17.7996 0.563878 -1.88755 0.000513012 -8.63294e-05 1.93344e-24
17.6883 0.583487 1.88755 0.00051375 -8.64401e-05 -1.57014e-20
17.6883 0.583487 -1.88755 0.00051375 -8.64401e-05 -1.57014e-20
17.5746 0.60353 1.88755 0.000514525 -8.65593e-05 1.10203e-39
17.5746 0.60353 -1.88755 0.000514525 -8.65593e-05 1.10203e-39
17.4583 0.624014 1.88755 0.000515303 -8.66806e-05 -1.53208e-20
17.4583 0.624014 -1.88755 0.000515303 -8.66806e-05 -1.53208e-20
17.3395 0.644951 1.88755 0.000516069 -8.68002e-05 1.51347e-20
17.3395 0.644951 -1.88755 0.000516069 -8.68002e-05 1.51347e-20
17.218 0.66635 1.88755 0.000516836 -8.69176e-05 3.65137e-24
17.218 0.66635 -1.88755 0.000516836 -8.69176e-05 3.65137e-24
17.0939 0.688222 1.88755 0.000517639 -8.70395e-05 1.47792e-20
17.0939 0.688222 -1.88755 0.000517639 -8.70395e-05 1.47792e-20
16.967 0.710576 1.88755 0.000518468 -8.71674e-05 1.17549e-38
16.967 0.710576 -1.88755 0.000518468 -8.71674e-05 1.17549e-38
16.8373 0.733423 1.88755 0.000519279 -8.72934e-05 -1.7708e-24
16.8373 0.733423 -1.88755 0.000519279 -8.72934e-05 -1.7708e-24
16.7048 0.756775 1.88755 0.000520081 -8.74153e-05 -1.59441e-26
16.7048 0.756775 -1.88755 0.000520081 -8.74153e-05 -1.59441e-26
16.5693 0.780643 1.88755 0.00052092 -8.75414e-05 1.71557e-24
16.5693 0.780643 -1.88755 0.00052092 -8.75414e-05 1.71557e-24
16.4309 0.805037 1.88755 0.000521778 -8.76721e-05 2.79312e-20
16.4309 0.805037 -1.88755 0.000521778 -8.76721e-05 2.79312e-20
16.2894 0.829969 1.88755 0.000522618 -8.77997e-05 5.09755e-25
16.2894 0.829969 -1.88755 0.000522618 -8.77997e-05 5.09755e-25
16.1447 0.855452 1.88755 0.000523441 -8.79229e-05 -1.36693e-20
16.1447 0.855452 -1.88755 0.000523441 -8.79229e-05 -1.36693e-20
15.9969 0.881498 1.88755 0.000524277 -8.80454e-05 1.35273e-20
15.9969 0.881498 -1.88755 0.000524277 -8.80454e-05 1.35273e-20
15.8458 0.908118 1.88755 0.000525158 -8.81736e-05 2.67792e-20
15.8458 0.908118 -1.88755 0.000525158 -8.81736e-05 2.67792e-20
15.6914 0.935326 1.88755 0.000526064 -8.83062e-05 2.65107e-20
15.6914 0.935326 -1.88755 0.000526064 -8.83062e-05 2.65107e-20
15.5336 0.963134 1.88755 0.000526963 -8.84369e-05 5.25104e-20
15.5336 0.963134 -1.88755 0.000526963 -8.84369e-05 5.25104e-20
15.3722 0.991557 1.88755 0.000527873 -8.85667e-05 -1.5782e-24
15.3722 0.991557 -1.88755 0.000527873 -8.85667e-05 -1.5782e-24
15.2074 1.02061 1.88755 0.000528822 -8.87007e-05 -9.19865e-25
15.2074 1.02061 -1.88755 0.000528822 -8.87007e-05 -9.19865e-25
15.0389 1.0503 1.88755 0.000529785 -8.88365e-05 -1.5676e-24
15.0389 1.0503 -1.88755 0.000529785 -8.88365e-05 -1.5676e-24
14.8666 1.08064 1.88755 0.000530755 -8.89709e-05 -9.14814e-25
14.8666 1.08064 -1.88755 0.000530755 -8.89709e-05 -9.14814e-25
14.6906 1.11166 1.88755 0.000531753 -8.91074e-05 -2.50933e-20
14.6906 1.11166 -1.88755 0.000531753 -8.91074e-05 -2.50933e-20
14.5107 1.14336 1.88755 0.000532753 -8.9243e-05 -1.52906e-24
14.5107 1.14336 -1.88755 0.000532753 -8.9243e-05 -1.52906e-24
14.3268 1.17576 1.88755 0.000533745 -8.93743e-05 1.49745e-24
14.3268 1.17576 -1.88755 0.000533745 -8.93743e-05 1.49745e-24
14.1388 1.20888 1.88755 0.000534754 -8.95045e-05 2.45126e-20
14.1388 1.20888 -1.88755 0.000534754 -8.95045e-05 2.45126e-20
13.9467 1.24272 1.88755 0.000535791 -8.9636e-05 5.87747e-39
13.9467 1.24272 -1.88755 0.000535791 -8.9636e-05 5.87747e-39
13.7504 1.27731 1.88755 0.000536827 -8.97646e-05 -4.70198e-38
13.7504 1.27731 -1.88755 0.000536827 -8.97646e-05 -4.70198e-38
13.5497 1.31267 1.88755 0.000537861 -8.98884e-05 -2.40203e-20
13.5497 1.31267 -1.88755 0.000537861 -8.98884e-05 -2.40203e-20
13.3446 1.34881 1.88755 0.000538896 -9.00082e-05 4.77592e-20
13.3446 1.34881 -1.88755 0.000538896 -9.00082e-05 4.77592e-20
13.135 1.38574 1.88755 0.000539909 -9.01196e-05 -1.43814e-24
13.135 1.38574 -1.88755 0.000539909 -9.01196e-05 -1.43814e-24
12.9207 1.42349 1.88755 0.000540897 -9.0221e-05 1.08145e-36
12.9207 1.42349 -1.88755 0.000540897 -9.0221e-05 1.08145e-36
12.7017 1.46208 1.88755 0.000541872 -9.03136e-05 -4.70512e-20
12.7017 1.46208 -1.88755 0.000541872 -9.03136e-05 -4.70512e-20
12.4779 1.50151 1.88755 0.000542814 -9.03942e-05 4.687e-20
12.4779 1.50151 -1.88755 0.000542814 -9.03942e-05 4.687e-20
12.2491 1.54182 1.88755 0.000543701 -9.04579e-05 -7.19395e-25
12.2491 1.54182 -1.88755 0.000543701 -9.04579e-05 -7.19395e-25
12.0153 1.58301 1.88755 0.000544533 -9.05035e-05 -4.6591e-20
12.0153 1.58301 -1.88755 0.000544533 -9.05035e-05 -4.6591e-20
11.7763 1.62512 1.88755 0.000545292 -9.05271e-05 -1.39327e-26
11.7763 1.62512 -1.88755 0.000545292 -9.05271e-05 -1.39327e-26
11.5321 1.66815 1.88755 0.000545949 -9.05222e-05 7.01589e-25
11.5321 1.66815 -1.88755 0.000545949 -9.05222e-05 7.01589e-25
11.2825 1.71214 1.88755 0.000546481 -9.04838e-05 4.64282e-20
11.2825 1.71214 -1.88755 0.000546481 -9.04838e-05 4.64282e-20
11.0273 1.75709 1.88755 0.000546855 -9.04045e-05 4.64511e-20
11.0273 1.75709 -1.88755 0.000546855 -9.04045e-05 4.64511e-20
10.7665 1.80304 1.88755 0.000547035 -9.02764e-05 -1.7544e-25
10.7665 1.80304 -1.88755 0.000547035 -9.02764e-05 -1.7544e-25
10.5 1.85 1.88755 0.000546948 -9.00861e-05 0
10.5 1.85 -1.88755 0.000546948 -9.00861e-05 0
10.2335 1.89696 1.88755 0.000546462 -8.98113e-05 -4.78225e-20
10.2335 1.89696 -1.88755 0.000546462 -8.98113e-05 -4.78225e-20
9.97268 1.94291 1.88755 0.000545515 -8.94415e-05 1.93724e-25
9.97268 1.94291 -1.88755 0.000545515 -8.94415e-05 1.93724e-25
9.71754 1.98786 1.88755 0.000544113 -8.89776e-05 5.2563e-20
9.71754 1.98786 -1.88755 0.000544113 -8.89776e-05 5.2563e-20
9.4679 2.03185 1.88755 0.000542202 -8.84108e-05 4.15314e-25
9.4679 2.03185 -1.88755 0.000542202 -8.84108e-05 4.15314e-25
9.22365 2.07488 1.88755 0.000539714 -8.77298e-05 5.78171e-20
9.22365 2.07488 -1.88755 0.000539714 -8.77298e-05 5.78171e-20
8.98468 2.11699 1.88755 0.000536581 -8.69224e-05 0
8.98468 2.11699 -1.88755 0.000536581 -8.69224e-05 0
8.75087 2.15818 1.88755 0.000532734 -8.5977e-05 0
8.75087 2.15818 -1.88755 0.000532734 -8.5977e-05 0
8.5221 2.19849 1.88755 0.000528103 -8.48814e-05 -2.35099e-38
8.5221 2.19849 -1.88755 0.000528103 -8.48814e-05 -2.35099e-38
8.29828 2.23792 1.88755 0.000522614 -8.36231e-05 1.40227e-19
8.29828 2.23792 -1.88755 0.000522614 -8.36231e-05 1.40227e-19
8.0793 2.27651 1.88755 0.000516186 -8.21881e-05 -7.36153e-20
8.0793 2.27651 -1.88755 0.000516186 -8.21881e-05 -7.36153e-20
7.86504 2.31426 1.88755 0.000508739 -8.05638e-05 -5.87747e-39
7.86504 2.31426 -1.88755 0.000508739 -8.05638e-05 -5.87747e-39
7.6554 2.35119 1.88755 0.000500159 -7.87295e-05 -4.05962e-20
7.6554 2.35119 -1.88755 0.000500159 -7.87295e-05 -4.05962e-20
7.4503 2.38733 1.88755 0.000490399 -7.66773e-05 -1.76324e-38
7.4503 2.38733 -1.88755 0.000490399 -7.66773e-05 -1.76324e-38
7.24963 2.42269 1.88755 0.000479417 -7.43998e-05 -2.89172e-36
7.24963 2.42269 -1.88755 0.000479417 -7.43998e-05 -2.89172e-36
7.05328 2.45728 1.88755 0.000467156 -7.18878e-05 9.41672e-20
7.05328 2.45728 -1.88755 0.000467156 -7.18878e-05 9.41672e-20
6.86118 2.49112 1.88755 0.00045356 -6.91325e-05 0
6.86118 2.49112 -1.88755 0.00045356 -6.91325e-05 0
6.67323 2.52424 1.88755 0.000438576 -6.61239e-05 -9.6499e-41
6.67323 2.52424 -1.88755 0.000438576 -6.61239e-05 -9.6499e-41
6.48934 2.55664 1.88755 0.000422161 -6.28552e-05 1.69207e-24
6.48934 2.55664 -1.88755 0.000422161 -6.28552e-05 1.69207e-24
6.30942 2.58834 1.88755 0.000404271 -5.93191e-05 -1.72977e-24
6.30942 2.58834 -1.88755 0.000404271 -5.93191e-05 -1.72977e-24
6.13338 2.61936 1.88755 0.000384875 -5.55097e-05 -1.78675e-36
6.13338 2.61936 -1.88755 0.000384875 -5.55097e-05 -1.78675e-36
5.96114 2.6497 1.88755 0.000363931 -5.14203e-05 6.35005e-20