# wallShearStress  POINT_DATA 994
# x y z  wallShearStress_x wallShearStress_y wallShearStress_z
76.848 4.7 1.88755 -0.00058428 3.33319e-08 0
77.848 4.7 1.88755 -0.00058428 3.33319e-08 0
77.848 4.7 -1.88755 -0.00058428 3.33319e-08 0
76.848 4.7 -1.88755 -0.00058428 3.33319e-08 0
75.8596 4.7 -1.88755 -0.00059124 1.11328e-08 2.73516e-27
75.8596 4.7 1.88755 -0.00059124 1.11328e-08 2.73516e-27
74.8826 4.7 -1.88755 -0.000592563 1.85704e-08 0
74.8826 4.7 1.88755 -0.000592563 1.85704e-08 0
73.9169 4.7 -1.88755 -0.000596956 1.79178e-08 0
73.9169 4.7 1.88755 -0.000596956 1.79178e-08 0
72.9624 4.7 -1.88755 -0.00060013 1.85204e-08 0
72.9624 4.7 1.88755 -0.00060013 1.85204e-08 0
72.019 4.7 -1.88755 -0.000603799 1.84495e-08 8.24002e-27
72.019 4.7 1.88755 -0.000603799 1.84495e-08 8.24002e-27
71.0865 4.7 -1.88755 -0.000607293 1.91635e-08 0
71.0865 4.7 1.88755 -0.000607293 1.91635e-08 0
70.1648 4.7 -1.88755 -0.000610956 1.965e-08 0
70.1648 4.7 1.88755 -0.000610956 1.965e-08 0
69.2537 4.7 -1.88755 -0.0006146 1.94601e-08 2.56097e-26
69.2537 4.7 1.88755 -0.0006146 1.94601e-08 2.56097e-26
68.3532 4.7 -1.88755 -0.000618364 1.9393e-08 0
68.3532 4.7 1.88755 -0.000618364 1.9393e-08 0
67.4632 4.7 -1.88755 -0.000622113 2.0325e-08 -3.16468e-26
67.4632 4.7 1.88755 -0.000622113 2.0325e-08 -3.16468e-26
66.5834 4.7 -1.88755 -0.000625947 2.11953e-08 0
66.5834 4.7 1.88755 -0.000625947 2.11953e-08 0
65.7138 4.7 -1.88755 -0.000629773 2.07053e-08 0
65.7138 4.7 1.88755 -0.000629773 2.07053e-08 0
64.8543 4.7 -1.88755 -0.000633708 2.041e-08 0
64.8543 4.7 1.88755 -0.000633708 2.041e-08 0
64.0048 4.7 -1.88755 -0.000637669 2.17466e-08 0
64.0048 4.7 1.88755 -0.000637669 2.17466e-08 0
63.1651 4.7 -1.88755 -0.000641704 2.28636e-08 0
63.1651 4.7 1.88755 -0.000641704 2.28636e-08 0
62.3351 4.7 -1.88755 -0.000645756 2.33829e-08 4.89293e-26
62.3351 4.7 1.88755 -0.000645756 2.33829e-08 4.89293e-26
61.5147 4.7 -1.88755 -0.000649897 2.51115e-08 0
61.5147 4.7 1.88755 -0.000649897 2.51115e-08 0
60.7038 4.7 -1.88755 -0.000654068 2.58264e-08 0
60.7038 4.7 1.88755 -0.000654068 2.58264e-08 0
59.9024 4.7 -1.88755 -0.000658314 2.39594e-08 0
59.9024 4.7 1.88755 -0.000658314 2.39594e-08 0
59.1102 4.7 -1.88755 -0.000662616 2.16736e-08 0
59.1102 4.7 1.88755 -0.000662616 2.16736e-08 0
58.3271 4.7 -1.88755 -0.000666964 1.93763e-08 6.16427e-26
58.3271 4.7 1.88755 -0.000666964 1.93763e-08 6.16427e-26
57.5532 4.7 -1.88755 -0.000671275 2.7165e-09 -6.38984e-26
57.5532 4.7 1.88755 -0.000671275 2.7165e-09 -6.38984e-26
56.7882 4.7 -1.88755 -0.000675864 -7.45486e-08 6.60387e-26
56.7882 4.7 1.88755 -0.000675864 -7.45486e-08 6.60387e-26
56.032 4.7 -1.88755 -0.000679436 -5.40364e-08 6.79472e-26
56.032 4.7 1.88755 -0.000679436 -5.40364e-08 6.79472e-26
55.2846 4.7 -1.88755 -0.000683823 2.30007e-08 0
55.2846 4.7 1.88755 -0.000683823 2.30007e-08 0
54.5459 4.7 -1.88755 -0.000688292 2.45575e-08 0
54.5459 4.7 1.88755 -0.000688292 2.45575e-08 0
53.8157 4.7 -1.88755 -0.000692815 2.61528e-08 0
53.8157 4.7 1.88755 -0.000692815 2.61528e-08 0
53.094 4.7 -1.88755 -0.000697413 2.78891e-08 0
53.094 4.7 1.88755 -0.000697413 2.78891e-08 0
52.3806 4.7 -1.88755 -0.000702023 2.83067e-08 0
52.3806 4.7 1.88755 -0.000702023 2.83067e-08 0
51.6755 4.7 -1.88755 -0.000706645 2.8092e-08 0
51.6755 4.7 1.88755 -0.000706645 2.8092e-08 0
50.9785 4.7 -1.88755 -0.000711278 2.78606e-08 0
50.9785 4.7 1.88755 -0.000711278 2.78606e-08 0
50.2897 4.7 -1.88755 -0.000715927 2.89406e-08 7.76745e-26
50.2897 4.7 1.88755 -0.000715927 2.89406e-08 7.76745e-26
49.6088 4.7 -1.88755 -0.000720621 3.09729e-08 0
49.6088 4.7 1.88755 -0.000720621 3.09729e-08 0
48.9358 4.7 -1.88755 -0.000725358 3.20549e-08 0
48.9358 4.7 1.88755 -0.000725358 3.20549e-08 0
48.2705 4.7 -1.88755 -0.000730064 3.09387e-08 0
48.2705 4.7 1.88755 -0.000730064 3.09387e-08 0
47.613 4.7 -1.88755 -0.000734819 2.95411e-08 0
47.613 4.7 1.88755 -0.000734819 2.95411e-08 0
46.9631 4.7 -1.88755 -0.000739621 2.94869e-08 7.49484e-26
46.9631 4.7 1.88755 -0.000739621 2.94869e-08 7.49484e-26
46.3207 4.7 -1.88755 -0.000744392 2.86309e-08 0
46.3207 4.7 1.88755 -0.000744392 2.86309e-08 0
45.6858 4.7 -1.88755 -0.000749132 3.00076e-08 -7.09823e-26
45.6858 4.7 1.88755 -0.000749132 3.00076e-08 -7.09823e-26
45.0582 4.7 -1.88755 -0.000753856 3.27601e-08 0
45.0582 4.7 1.88755 -0.000753856 3.27601e-08 0
44.4379 4.7 -1.88755 -0.000758625 3.73992e-08 6.49296e-26
44.4379 4.7 1.88755 -0.000758625 3.73992e-08 6.49296e-26
43.8248 4.7 -1.88755 -0.000763454 4.84293e-08 0
43.8248 4.7 1.88755 -0.000763454 4.84293e-08 0
43.2187 4.7 -1.88755 -0.000768485 9.12303e-08 0
43.2187 4.7 1.88755 -0.000768485 9.12303e-08 0
42.6197 4.7 -1.88755 -0.000772519 2.40553e-07 0
42.6197 4.7 1.88755 -0.000772519 2.40553e-07 0
42.0276 4.7 -1.88755 -0.000778509 1.98051e-07 4.50158e-26
42.0276 4.7 1.88755 -0.000778509 1.98051e-07 4.50158e-26
41.4424 4.7 -1.88755 -0.000783277 3.9695e-08 3.79368e-26
41.4424 4.7 1.88755 -0.000783277 3.9695e-08 3.79368e-26
40.8639 4.7 -1.88755 -0.000787842 3.4027e-08 2.99061e-26
40.8639 4.7 1.88755 -0.000787842 3.4027e-08 2.99061e-26
40.2922 4.7 -1.88755 -0.000792355 2.93418e-08 0
40.2922 4.7 1.88755 -0.000792355 2.93418e-08 0
39.727 4.7 -1.88755 -0.000796769 2.36155e-08 0
39.727 4.7 1.88755 -0.000796769 2.36155e-08 0
39.1685 4.7 -1.88755 -0.000801228 7.16294e-09 0
39.1685 4.7 1.88755 -0.000801228 7.16294e-09 0
38.6163 4.7 -1.88755 -0.000805241 -5.53597e-08 0
38.6163 4.7 1.88755 -0.000805241 -5.53597e-08 0
38.0706 4.7 -1.88755 -0.000810102 -2.5214e-07 0
38.0706 4.7 1.88755 -0.000810102 -2.5214e-07 0
37.5312 4.7 -1.88755 -0.000812266 -1.81667e-07 0
37.5312 4.7 1.88755 -0.000812266 -1.81667e-07 0
36.998 4.7 -1.88755 -0.000816273 2.10767e-08 0
36.998 4.7 1.88755 -0.000816273 2.10767e-08 0
36.4711 4.7 -1.88755 -0.000820281 2.57688e-08 4.05991e-26
36.4711 4.7 1.88755 -0.000820281 2.57688e-08 4.05991e-26
35.9502 4.7 -1.88755 -0.00082425 2.9095e-08 5.14484e-26
35.9502 4.7 1.88755 -0.00082425 2.9095e-08 5.14484e-26
35.4353 4.7 -1.88755 -0.000828305 3.52765e-08 0
35.4353 4.7 1.88755 -0.000828305 3.52765e-08 0
34.9264 4.7 -1.88755 -0.00083226 5.48579e-08 -7.66381e-26
34.9264 4.7 1.88755 -0.00083226 5.48579e-08 -7.66381e-26
34.4234 4.7 -1.88755 -0.000836643 1.19416e-07 0
34.4234 4.7 1.88755 -0.000836643 1.19416e-07 0
33.9204 4.7 -1.88755 -0.000839065 3.27666e-07 0
33.9204 4.7 1.88755 -0.000839065 3.27666e-07 0
33.4352 4.7 -1.88755 -0.000844957 1.66941e-07 0
33.4352 4.7 1.88755 -0.000844957 1.66941e-07 0
32.9672 4.7 -1.88755 -0.00084983 -3.17414e-07 1.4998e-25
32.9672 4.7 1.88755 -0.00084983 -3.17414e-07 1.4998e-25
32.5157 4.7 -1.88755 -0.000852613 -1.51106e-07 0
32.5157 4.7 1.88755 -0.000852613 -1.51106e-07 0
32.0803 4.7 -1.88755 -0.000853539 3.07367e-07 0
32.0803 4.7 1.88755 -0.000853539 3.07367e-07 0
31.6602 4.7 -1.88755 -0.00086165 2.64588e-09 0
31.6602 4.7 1.88755 -0.00086165 2.64588e-09 0
31.255 4.7 -1.88755 -0.000861001 4.00587e-08 2.65348e-25
31.255 4.7 1.88755 -0.000861001 4.00587e-08 2.65348e-25
30.8642 4.7 -1.88755 -0.000869046 7.38064e-10 0
30.8642 4.7 1.88755 -0.000869046 7.38064e-10 0
30.4871 4.7 -1.88755 -0.00086925 8.74663e-09 0
30.4871 4.7 1.88755 -0.00086925 8.74663e-09 0
30.1235 4.7 -1.88755 -0.000876305 -5.449e-08 0
30.1235 4.7 1.88755 -0.000876305 -5.449e-08 0
29.7727 4.7 -1.88755 -0.000880613 -9.54211e-08 -2.14003e-25
29.7727 4.7 1.88755 -0.000880613 -9.54211e-08 -2.14003e-25
29.4343 4.7 -1.88755 -0.00088278 5.36395e-07 0
29.4343 4.7 1.88755 -0.00088278 5.36395e-07 0
29.1079 4.7 -1.88755 -0.000888395 3.77262e-07 0
29.1079 4.7 1.88755 -0.000888395 3.77262e-07 0
28.793 4.7 -1.88755 -0.000893929 -6.42364e-08 -2.94274e-25
28.793 4.7 1.88755 -0.000893929 -6.42364e-08 -2.94274e-25
28.4893 4.7 -1.88755 -0.00089741 -2.4637e-07 0
28.4893 4.7 1.88755 -0.00089741 -2.4637e-07 0
28.1964 4.7 -1.88755 -0.000903401 -5.67685e-07 -3.56479e-25
28.1964 4.7 1.88755 -0.000903401 -5.67685e-07 -3.56479e-25
27.9138 4.7 -1.88755 -0.000908573 -3.18254e-07 0
27.9138 4.7 1.88755 -0.000908573 -3.18254e-07 0
27.6412 4.7 -1.88755 -0.000914034 8.94853e-08 0
27.6412 4.7 1.88755 -0.000914034 8.94853e-08 0
27.3783 4.7 -1.88755 -0.000919767 1.27112e-07 4.61748e-25
27.3783 4.7 1.88755 -0.000919767 1.27112e-07 4.61748e-25
27.1246 4.7 -1.88755 -0.000924807 2.28498e-07 0
27.1246 4.7 1.88755 -0.000924807 2.28498e-07 0
26.88 4.7 -1.88755 -0.000931159 4.0744e-07 0
26.88 4.7 1.88755 -0.000931159 4.0744e-07 0
26.644 4.7 -1.88755 -0.000933798 7.52451e-07 0
26.644 4.7 1.88755 -0.000933798 7.52451e-07 0
26.4164 4.7 -1.88755 -0.000938646 5.37634e-07 -3.18522e-25
26.4164 4.7 1.88755 -0.000938646 5.37634e-07 -3.18522e-25
26.1968 4.7 -1.88755 -0.000944983 7.86878e-08 0
26.1968 4.7 1.88755 -0.000944983 7.86878e-08 0
25.985 4.7 -1.88755 -0.000950406 5.37879e-08 3.68047e-25
25.985 4.7 1.88755 -0.000950406 5.37879e-08 3.68047e-25
25.7807 4.7 -1.88755 -0.000956126 2.84007e-08 0
25.7807 4.7 1.88755 -0.000956126 2.84007e-08 0
25.5836 4.7 -1.88755 -0.000961641 -2.59875e-08 0
25.5836 4.7 1.88755 -0.000961641 -2.59875e-08 0
25.3935 4.7 -1.88755 -0.000967589 -1.48359e-07 -4.50403e-25
25.3935 4.7 1.88755 -0.000967589 -1.48359e-07 -4.50403e-25
25.2101 4.7 -1.88755 -0.00097196 -3.71126e-07 0
25.2101 4.7 1.88755 -0.00097196 -3.71126e-07 0
25.0332 4.7 -1.88755 -0.000977483 -4.47124e-07 -5.10924e-25
25.0332 4.7 1.88755 -0.000977483 -4.47124e-07 -5.10924e-25
24.8626 4.7 -1.88755 -0.000988374 2.11952e-07 0
24.8626 4.7 1.88755 -0.000988374 2.11952e-07 0
24.698 4.7 -1.88755 -0.000991009 9.04332e-07 2.8629e-25
24.698 4.7 1.88755 -0.000991009 9.04332e-07 2.8629e-25
24.5393 4.7 -1.88755 -0.000992912 5.7582e-07 0
24.5393 4.7 1.88755 -0.000992912 5.7582e-07 0
24.3861 4.7 -1.88755 -0.000998577 8.35496e-08 3.22452e-25
24.3861 4.7 1.88755 -0.000998577 8.35496e-08 3.22452e-25
24.2384 4.7 -1.88755 -0.00100419 -2.08023e-09 -3.40576e-25
24.2384 4.7 1.88755 -0.00100419 -2.08023e-09 -3.40576e-25
24.0959 4.7 -1.88755 -0.00100865 -1.02934e-07 0
24.0959 4.7 1.88755 -0.00100865 -1.02934e-07 0
23.9585 4.7 -1.88755 -0.00101387 -2.85897e-07 3.78587e-25
23.9585 4.7 1.88755 -0.00101387 -2.85897e-07 3.78587e-25
23.8259 4.7 -1.88755 -0.00101721 -6.11201e-07 0
23.8259 4.7 1.88755 -0.00101721 -6.11201e-07 0
23.698 4.7 -1.88755 -0.00102239 -6.81423e-07 0
23.698 4.7 1.88755 -0.00102239 -6.81423e-07 0
23.5746 4.7 -1.88755 -0.00103357 -1.58194e-07 4.3747e-25
23.5746 4.7 1.88755 -0.00103357 -1.58194e-07 4.3747e-25
23.4557 4.7 -1.88755 -0.00103791 2.09643e-07 0
23.4557 4.7 1.88755 -0.00103791 2.09643e-07 0
23.3409 4.7 -1.88755 -0.00104239 2.50408e-07 2.40443e-25
23.3409 4.7 1.88755 -0.00104239 2.50408e-07 2.40443e-25
23.2302 4.7 -1.88755 -0.00104649 3.35573e-07 2.51705e-25
23.2302 4.7 1.88755 -0.00104649 3.35573e-07 2.51705e-25
23.1234 4.7 -1.88755 -0.00105 4.43502e-07 -2.63367e-25
23.1234 4.7 1.88755 -0.00105 4.43502e-07 -2.63367e-25
23.0203 4.7 -1.88755 -0.00105258 6.42668e-07 2.75374e-25
23.0203 4.7 1.88755 -0.00105258 6.42668e-07 2.75374e-25
22.921 4.7 -1.88755 -0.00105683 8.80622e-07 0
22.921 4.7 1.88755 -0.00105683 8.80622e-07 0
22.8251 4.7 -1.88755 -0.00105825 8.98519e-07 0
22.8251 4.7 1.88755 -0.00105825 8.98519e-07 0
22.7326 4.7 -1.88755 -0.00105585 4.71154e-07 0
22.7326 4.7 1.88755 -0.00105585 4.71154e-07 0
22.6435 4.7 -1.88755 -0.00105923 1.00117e-07 0
22.6435 4.7 1.88755 -0.00105923 1.00117e-07 0
22.5574 4.7 -1.88755 -0.00106232 4.99002e-08 -3.40965e-25
22.5574 4.7 1.88755 -0.00106232 4.99002e-08 -3.40965e-25
22.4744 4.7 -1.88755 -0.00106482 1.27485e-08 1.77367e-25
22.4744 4.7 1.88755 -0.00106482 1.27485e-08 1.77367e-25
22.3944 4.7 -1.88755 -0.00106684 1.53379e-08 1.84419e-25
22.3944 4.7 1.88755 -0.00106684 1.53379e-08 1.84419e-25
22.3172 4.7 -1.88755 -0.00106926 -1.49723e-08 0
22.3172 4.7 1.88755 -0.00106926 -1.49723e-08 0
22.2427 4.7 -1.88755 -0.00107177 -7.83127e-08 0
22.2427 4.7 1.88755 -0.00107177 -7.83127e-08 0
22.1708 4.7 -1.88755 -0.00107385 -1.73073e-07 0
22.1708 4.7 1.88755 -0.00107385 -1.73073e-07 0
22.1015 4.7 -1.88755 -0.001076 -3.33563e-07 0
22.1015 4.7 1.88755 -0.001076 -3.33563e-07 0
22.0347 4.7 -1.88755 -0.00107825 -5.96572e-07 0
22.0347 4.7 1.88755 -0.00107825 -5.96572e-07 0
21.9702 4.7 -1.88755 -0.00107947 -8.38719e-07 -2.29741e-25
21.9702 4.7 1.88755 -0.00107947 -8.38719e-07 -2.29741e-25
21.908 4.7 -1.88755 -0.00108161 -3.28435e-07 2.37704e-25
21.908 4.7 1.88755 -0.00108161 -3.28435e-07 2.37704e-25
21.848 4.7 -1.88755 -0.00109108 1.88608e-07 0
21.848 4.7 1.88755 -0.00109108 1.88608e-07 0
21.7879 4.7 -1.88755 -0.0010926 1.32144e-07 -2.46131e-25
21.7879 4.7 1.88755 -0.0010926 1.32144e-07 -2.46131e-25
21.7278 4.7 -1.88755 -0.00109462 1.58628e-07 0
21.7278 4.7 1.88755 -0.00109462 1.58628e-07 0
21.6677 4.7 -1.88755 -0.00109592 1.58257e-07 0
21.6677 4.7 1.88755 -0.00109592 1.58257e-07 0
21.6075 4.7 -1.88755 -0.00109772 1.93035e-07 0
21.6075 4.7 1.88755 -0.00109772 1.93035e-07 0
21.5474 4.7 -1.88755 -0.00109991 1.72446e-07 1.2659e-25
21.5474 4.7 1.88755 -0.00109991 1.72446e-07 1.2659e-25
21.4873 4.7 -1.88755 -0.00110067 1.63556e-07 -3.81599e-25
21.4873 4.7 1.88755 -0.00110067 1.63556e-07 -3.81599e-25
21.4272 4.7 -1.88755 -0.00110311 1.63796e-07 2.54814e-25
21.4272 4.7 1.88755 -0.00110311 1.63796e-07 2.54814e-25
21.3671 4.7 -1.88755 -0.00110425 1.28943e-07 2.05863e-24
21.3671 4.7 1.88755 -0.00110425 1.28943e-07 2.05863e-24
21.307 4.7 -1.88755 -0.00110496 2.49407e-07 0
21.307 4.7 1.88755 -0.00110496 2.49407e-07 0
21.2469 4.7 -1.88755 -0.00110786 2.93333e-07 -2.61308e-25
21.2469 4.7 1.88755 -0.00110786 2.93333e-07 -2.61308e-25
21.1868 4.7 -1.88755 -0.00110777 3.28119e-07 2.61544e-25
21.1868 4.7 1.88755 -0.00110777 3.28119e-07 2.61544e-25
21.1267 4.7 -1.88755 -0.00110986 4.35183e-07 4.22287e-24
21.1267 4.7 1.88755 -0.00110986 4.35183e-07 4.22287e-24
21.0665 4.7 -1.88755 -0.00111074 4.49983e-07 0
21.0665 4.7 1.88755 -0.00111074 4.49983e-07 0
21.0064 4.7 -1.88755 -0.00111059 6.296e-07 4.28023e-24
21.0064 4.7 1.88755 -0.00111059 6.296e-07 4.28023e-24
20.9463 4.7 -1.88755 -0.0011124 7.68715e-07 4.30617e-24
20.9463 4.7 1.88755 -0.0011124 7.68715e-07 4.30617e-24
20.8862 4.7 -1.88755 -0.00111117 5.31651e-07 -5.4411e-25
20.8862 4.7 1.88755 -0.00111117 5.31651e-07 -5.4411e-25
20.8261 4.7 -1.88755 -0.0011074 1.60904e-07 4.92704e-24
20.8261 4.7 1.88755 -0.0011074 1.60904e-07 4.92704e-24
20.766 4.7 -1.88755 -0.00110846 -8.02716e-08 0
20.766 4.7 1.88755 -0.00110846 -8.02716e-08 0
20.7059 4.7 -1.88755 -0.00110918 -1.42893e-07 0
20.7059 4.7 1.88755 -0.00110918 -1.42893e-07 0
20.6458 4.7 -1.88755 -0.00111019 -2.40645e-07 -4.18588e-24
20.6458 4.7 1.88755 -0.00111019 -2.40645e-07 -4.18588e-24
20.5857 4.7 -1.88755 -0.00111089 -3.90804e-07 1.56466e-27
20.5857 4.7 1.88755 -0.00111089 -3.90804e-07 1.56466e-27
20.5255 4.7 -1.88755 -0.00111186 -5.83336e-07 -5.65557e-25
20.5255 4.7 1.88755 -0.00111186 -5.83336e-07 -5.65557e-25
20.4654 4.7 -1.88755 -0.00111249 -8.27193e-07 9.39338e-24
20.4654 4.7 1.88755 -0.00111249 -8.27193e-07 9.39338e-24
20.4053 4.7 -1.88755 -0.00111338 -3.40399e-07 -9.16397e-24
20.4053 4.7 1.88755 -0.00111338 -3.40399e-07 -9.16397e-24
20.3452 4.7 -1.88755 -0.00112179 1.13447e-07 -8.90226e-24
20.3452 4.7 1.88755 -0.00112179 1.13447e-07 -8.90226e-24
20.2851 4.7 -1.88755 -0.00112123 1.82084e-08 -2.88543e-25
20.2851 4.7 1.88755 -0.00112123 1.82084e-08 -2.88543e-25
20.225 4.7 -1.88755 -0.00112151 8.72923e-08 0
20.225 4.7 1.88755 -0.00112151 8.72923e-08 0
20.1649 4.7 -1.88755 -0.00112239 1.11968e-07 -9.3821e-24
20.1649 4.7 1.88755 -0.00112239 1.11968e-07 -9.3821e-24
20.1049 4.7 -1.88755 -0.00112242 1.08527e-07 -1.48222e-25
20.1049 4.7 1.88755 -0.00112242 1.08527e-07 -1.48222e-25
20.0436 4.7 -1.88755 -0.0011227 9.75978e-08 1.45982e-25
20.0436 4.7 1.88755 -0.0011227 9.75978e-08 1.45982e-25
19.9809 4.7 -1.88755 -0.00112271 1.59455e-07 9.27533e-24
19.9809 4.7 1.88755 -0.00112271 1.59455e-07 9.27533e-24
19.9169 4.7 -1.88755 -0.00112323 2.11499e-07 -5.75638e-25
19.9169 4.7 1.88755 -0.00112323 2.11499e-07 -5.75638e-25
19.8516 4.7 -1.88755 -0.00112329 2.34163e-07 -8.52562e-24
19.8516 4.7 1.88755 -0.00112329 2.34163e-07 -8.52562e-24
19.7848 4.7 -1.88755 -0.00112294 3.47701e-07 0
19.7848 4.7 1.88755 -0.00112294 3.47701e-07 0
19.7165 4.7 -1.88755 -0.00112205 5.33464e-07 -8.9176e-24
19.7165 4.7 1.88755 -0.00112205 5.33464e-07 -8.9176e-24
19.6468 4.7 -1.88755 -0.0011228 6.55942e-07 0
19.6468 4.7 1.88755 -0.0011228 6.55942e-07 0
19.5755 4.7 -1.88755 -0.00112028 5.54333e-07 -8.75173e-24
19.5755 4.7 1.88755 -0.00112028 5.54333e-07 -8.75173e-24
19.5027 4.7 -1.88755 -0.00111621 4.4891e-08 0
19.5027 4.7 1.88755 -0.00111621 4.4891e-08 0
19.4284 4.7 -1.88755 -0.00111566 -4.91059e-07 0
19.4284 4.7 1.88755 -0.00111566 -4.91059e-07 0
19.3524 4.7 -1.88755 -0.00111507 -7.60488e-07 -1.06788e-24
19.3524 4.7 1.88755 -0.00111507 -7.60488e-07 -1.06788e-24
19.2747 4.7 -1.88755 -0.00111483 -5.94742e-07 1.05064e-24
19.2747 4.7 1.88755 -0.00111483 -5.94742e-07 1.05064e-24
19.1954 4.7 -1.88755 -0.00112048 -4.51417e-08 -1.04248e-24
19.1954 4.7 1.88755 -0.00112048 -4.51417e-08 -1.04248e-24
19.1144 4.7 -1.88755 -0.00111944 2.55384e-07 3.09e-24
19.1144 4.7 1.88755 -0.00111944 2.55384e-07 3.09e-24
19.0315 4.7 -1.88755 -0.00111849 3.61681e-07 1.34375e-26
19.0315 4.7 1.88755 -0.00111849 3.61681e-07 1.34375e-26
18.9469 4.7 -1.88755 -0.00111668 5.40557e-07 1.35332e-26
18.9469 4.7 1.88755 -0.00111668 5.40557e-07 1.35332e-26
18.8605 4.7 -1.88755 -0.00111661 7.55849e-07 -1.79754e-23
18.8605 4.7 1.88755 -0.00111661 7.55849e-07 -1.79754e-23
18.7722 4.7 -1.88755 -0.00111322 9.16538e-07 1.98672e-24
18.7722 4.7 1.88755 -0.00111322 9.16538e-07 1.98672e-24
18.6819 4.7 -1.88755 -0.00110942 6.15344e-07 -3.93408e-24
18.6819 4.7 1.88755 -0.00110942 6.15344e-07 -3.93408e-24
18.5898 4.7 -1.88755 -0.00110834 1.21828e-07 1.94054e-24
18.5898 4.7 1.88755 -0.00110834 1.21828e-07 1.94054e-24
18.4956 4.7 -1.88755 -0.00110662 7.47453e-08 1.34932e-23
18.4956 4.7 1.88755 -0.00110662 7.47453e-08 1.34932e-23
18.3993 4.7 -1.88755 -0.00110497 6.5915e-08 3.81979e-24
18.3993 4.7 1.88755 -0.00110497 6.5915e-08 3.81979e-24
18.301 4.7 -1.88755 -0.0011031 5.38987e-08 -1.88434e-24
18.301 4.7 1.88755 -0.0011031 5.38987e-08 -1.88434e-24
18.2005 4.7 -1.88755 -0.00110099 5.18685e-08 1.49861e-23
18.2005 4.7 1.88755 -0.00110099 5.18685e-08 1.49861e-23
18.0979 4.7 -1.88755 -0.00109875 4.64838e-08 2.96857e-23
18.0979 4.7 1.88755 -0.00109875 4.64838e-08 2.96857e-23
17.993 4.7 -1.88755 -0.00109625 4.19016e-08 2.75593e-23
17.993 4.7 1.88755 -0.00109625 4.19016e-08 2.75593e-23
17.8859 4.7 -1.88755 -0.00109361 2.70436e-08 1.81315e-24
17.8859 4.7 1.88755 -0.00109361 2.70436e-08 1.81315e-24
17.7764 4.7 -1.88755 -0.00109061 1.91379e-09 0
17.7764 4.7 1.88755 -0.00109061 1.91379e-09 0
17.6645 4.7 -1.88755 -0.00108744 -5.81632e-08 0
17.6645 4.7 1.88755 -0.00108744 -5.81632e-08 0
17.5502 4.7 -1.88755 -0.00108353 -1.5664e-07 0
17.5502 4.7 1.88755 -0.00108353 -1.5664e-07 0
17.4335 4.7 -1.88755 -0.00107982 -3.00939e-07 2.63081e-23
17.4335 4.7 1.88755 -0.00107982 -3.00939e-07 2.63081e-23
17.3142 4.7 -1.88755 -0.00107505 -4.93673e-07 2.95492e-23
17.3142 4.7 1.88755 -0.00107505 -4.93673e-07 2.95492e-23
17.1923 4.7 -1.88755 -0.00107227 -6.63225e-07 0
17.1923 4.7 1.88755 -0.00107227 -6.63225e-07 0
17.0678 4.7 -1.88755 -0.00106965 -3.04451e-07 0
17.0678 4.7 1.88755 -0.00106965 -3.04451e-07 0
16.9405 4.7 -1.88755 -0.00106365 2.39994e-07 2.69965e-23
16.9405 4.7 1.88755 -0.00106365 2.39994e-07 2.69965e-23
16.8105 4.7 -1.88755 -0.00105889 4.33483e-07 -2.8451e-23
16.8105 4.7 1.88755 -0.00105889 4.33483e-07 -2.8451e-23
16.6777 4.7 -1.88755 -0.00105186 7.27205e-07 1.65155e-24
16.6777 4.7 1.88755 -0.00105186 7.27205e-07 1.65155e-24
16.542 4.7 -1.88755 -0.00104717 4.56203e-07 -2.8065e-23
16.542 4.7 1.88755 -0.00104717 4.56203e-07 -2.8065e-23
16.4034 4.7 -1.88755 -0.00104148 -1.66438e-07 -2.45651e-23
16.4034 4.7 1.88755 -0.00104148 -1.66438e-07 -2.45651e-23
16.2617 4.7 -1.88755 -0.00103444 -3.68119e-07 0
16.2617 4.7 1.88755 -0.00103444 -3.68119e-07 0
16.117 4.7 -1.88755 -0.00102898 -6.24932e-07 0
16.117 4.7 1.88755 -0.00102898 -6.24932e-07 0
15.9691 4.7 -1.88755 -0.001022 -3.95997e-07 0
15.9691 4.7 1.88755 -0.001022 -3.95997e-07 0
15.818 4.7 -1.88755 -0.00101432 1.59863e-08 -1.59214e-24
15.818 4.7 1.88755 -0.00101432 1.59863e-08 -1.59214e-24
15.6636 4.7 -1.88755 -0.00100648 2.15597e-08 -4.71546e-23
15.6636 4.7 1.88755 -0.00100648 2.15597e-08 -4.71546e-23
15.5059 4.7 -1.88755 -0.00099823 2.39675e-08 -5.15061e-23
15.5059 4.7 1.88755 -0.00099823 2.39675e-08 -5.15061e-23
15.3448 4.7 -1.88755 -0.000989617 2.87459e-08 0
15.3448 4.7 1.88755 -0.000989617 2.87459e-08 0
15.1801 4.7 -1.88755 -0.00098046 4.65752e-08 -1.55082e-24
15.1801 4.7 1.88755 -0.00098046 4.65752e-08 -1.55082e-24
15.0119 4.7 -1.88755 -0.000970644 9.49321e-08 1.52181e-24
15.0119 4.7 1.88755 -0.000970644 9.49321e-08 1.52181e-24
14.84 4.7 -1.88755 -0.000960515 2.12036e-07 0
14.84 4.7 1.88755 -0.000960515 2.12036e-07 0
14.6644 4.7 -1.88755 -0.000949371 4.75726e-07 -1.52548e-24
14.6644 4.7 1.88755 -0.000949371 4.75726e-07 -1.52548e-24
14.485 4.7 -1.88755 -0.000940905 3.62615e-07 3.01936e-24
14.485 4.7 1.88755 -0.000940905 3.62615e-07 3.01936e-24
14.3017 4.7 -1.88755 -0.000929557 1.17669e-09 2.20985e-26
14.3017 4.7 1.88755 -0.000929557 1.17669e-09 2.20985e-26
14.1144 4.7 -1.88755 -0.000917582 -1.44303e-08 -1.4845e-24
14.1144 4.7 1.88755 -0.000917582 -1.44303e-08 -1.4845e-24
13.9231 4.7 -1.88755 -0.000905008 -2.84369e-08 -4.61686e-23
13.9231 4.7 1.88755 -0.000905008 -2.84369e-08 -4.61686e-23
13.7276 4.7 -1.88755 -0.000891776 -6.35815e-08 -2.96918e-24
13.7276 4.7 1.88755 -0.000891776 -6.35815e-08 -2.96918e-24
13.5278 4.7 -1.88755 -0.000877853 -1.35232e-07 4.73295e-23
13.5278 4.7 1.88755 -0.000877853 -1.35232e-07 4.73295e-23
13.3237 4.7 -1.88755 -0.000863752 -3.01002e-07 9.59246e-23
13.3237 4.7 1.88755 -0.000863752 -3.01002e-07 9.59246e-23
13.1152 4.7 -1.88755 -0.000847457 -1.86812e-07 -9.2684e-23
13.1152 4.7 1.88755 -0.000847457 -1.86812e-07 -9.2684e-23
12.9022 4.7 -1.88755 -0.00083156 1.89531e-07 -1.45591e-24
12.9022 4.7 1.88755 -0.00083156 1.89531e-07 -1.45591e-24
12.6845 4.7 -1.88755 -0.000817209 9.66925e-08 9.47921e-23
12.6845 4.7 1.88755 -0.000817209 9.66925e-08 9.47921e-23
12.4621 4.7 -1.88755 -0.000800451 -2.22485e-07 9.33065e-23
12.4621 4.7 1.88755 -0.000800451 -2.22485e-07 9.33065e-23
12.2349 4.7 -1.88755 -0.00078201 -9.4058e-08 9.32742e-23
12.2349 4.7 1.88755 -0.00078201 -9.4058e-08 9.32742e-23
12.0027 4.7 -1.88755 -0.000765362 -5.54526e-08 7.28096e-25
12.0027 4.7 1.88755 -0.000765362 -5.54526e-08 7.28096e-25
11.7655 4.7 -1.88755 -0.000746073 -8.84499e-08 -9.35963e-23
11.7655 4.7 1.88755 -0.000746073 -8.84499e-08 -9.35963e-23
11.5232 4.7 -1.88755 -0.000728334 4.68629e-09 -1.10537e-24
11.5232 4.7 1.88755 -0.000728334 4.68629e-09 -1.10537e-24
11.2755 4.7 -1.88755 -0.00070907 -1.61221e-07 3.6677e-25
11.2755 4.7 1.88755 -0.00070907 -1.61221e-07 3.6677e-25
11.0226 4.7 -1.88755 -0.000689424 -2.51862e-07 0
11.0226 4.7 1.88755 -0.000689424 -2.51862e-07 0
10.7641 4.7 -1.88755 -0.00066872 -2.45876e-07 0
10.7641 4.7 1.88755 -0.00066872 -2.45876e-07 0
10.5 4.7 -1.88755 -0.000648348 -1.30093e-07 0
10.5 4.7 1.88755 -0.000648348 -1.30093e-07 0
10.2359 4.7 -1.88755 -0.000628379 -1.75822e-07 0
10.2359 4.7 1.88755 -0.000628379 -1.75822e-07 0
9.97744 4.7 -1.88755 -0.000608357 -2.80087e-07 -2.07532e-25
9.97744 4.7 1.88755 -0.000608357 -2.80087e-07 -2.07532e-25
9.72445 4.7 -1.88755 -0.000589114 -3.15932e-07 -1.09935e-22
9.72445 4.7 1.88755 -0.000589114 -3.15932e-07 -1.09935e-22
9.47684 4.7 -1.88755 -0.000570723 -3.56333e-07 1.15854e-22
9.47684 4.7 1.88755 -0.000570723 -3.56333e-07 1.15854e-22
9.2345 4.7 -1.88755 -0.000553258 -4.13545e-07 1.21849e-22
9.2345 4.7 1.88755 -0.000553258 -4.13545e-07 1.21849e-22
8.9973 4.7 -1.88755 -0.000536682 -4.35631e-07 1.01568e-24
8.9973 4.7 1.88755 -0.000536682 -4.35631e-07 1.01568e-24
8.76514 4.7 -1.88755 -0.000521409 -4.29442e-07 -1.03812e-24
8.76514 4.7 1.88755 -0.000521409 -4.29442e-07 -1.03812e-24
8.53792 4.7 -1.88755 -0.000507405 -4.78262e-07 1.12306e-24
8.53792 4.7 1.88755 -0.000507405 -4.78262e-07 1.12306e-24
8.31552 4.7 -1.88755 -0.000494546 -5.25038e-07 3.29088e-26
8.31552 4.7 1.88755 -0.000494546 -5.25038e-07 3.29088e-26
8.09785 4.7 -1.88755 -0.00048304 -5.53344e-07 -2.44775e-24
8.09785 4.7 1.88755 -0.00048304 -5.53344e-07 -2.44775e-24
7.8848 4.7 -1.88755 -0.000472866 -5.93437e-07 -1.62031e-22
7.8848 4.7 1.88755 -0.000472866 -5.93437e-07 -1.62031e-22
7.67629 4.7 -1.88755 -0.0004641 -6.29897e-07 -1.33309e-24
7.67629 4.7 1.88755 -0.0004641 -6.29897e-07 -1.33309e-24
7.4722 4.7 -1.88755 -0.000456799 -6.66893e-07 -9.23343e-23
7.4722 4.7 1.88755 -0.000456799 -6.66893e-07 -9.23343e-23
7.27245 4.7 -1.88755 -0.000451019 -7.03826e-07 2.98541e-24
7.27245 4.7 1.88755 -0.000451019 -7.03826e-07 2.98541e-24
7.07694 4.7 -1.88755 -0.000446818 -7.40844e-07 -1.54648e-24
7.07694 4.7 1.88755 -0.000446818 -7.40844e-07 -1.54648e-24
6.88558 4.7 -1.88755 -0.000444247 -7.77713e-07 1.0538e-22
6.88558 4.7 1.88755 -0.000444247 -7.77713e-07 1.0538e-22
6.6983 4.7 -1.88755 -0.000443363 -8.14532e-07 0
6.6983 4.7 1.88755 -0.000443363 -8.14532e-07 0
6.51499 4.7 -1.88755 -0.00044422 -8.50839e-07 1.16214e-22
6.51499 4.7 1.88755 -0.00044422 -8.50839e-07 1.16214e-22
6.33558 4.7 -1.88755 -0.000446879 -8.86973e-07 -1.20081e-22
6.33558 4.7 1.88755 -0.000446879 -8.86973e-07 -1.20081e-22
6.15998 4.7 -1.88755 -0.000451399 -9.22755e-07 1.26111e-22
6.15998 4.7 1.88755 -0.000451399 -9.22755e-07 1.26111e-22
5.98811 4.7 -1.88755 -0.000457821 -9.58029e-07 -1.34441e-22
5.98811 4.7 1.88755 -0.000457821 -9.58029e-07 -1.34441e-22
5.81989 4.7 -1.88755 -0.000466199 -9.92697e-07 0
5.81989 4.7 1.88755 -0.000466199 -9.92697e-07 0
5.65525 4.7 -1.88755 -0.000476594 -1.02654e-06 -1.48049e-22
5.65525 4.7 1.88755 -0.000476594 -1.02654e-06 -1.48049e-22
5.4941 4.7 -1.88755 -0.000489071 -1.0595e-06 -2.45992e-24
5.4941 4.7 1.88755 -0.000489071 -1.0595e-06 -2.45992e-24
5.33638 4.7 -1.88755 -0.000503701 -1.09115e-06 5.09359e-24
5.33638 4.7 1.88755 -0.000503701 -1.09115e-06 5.09359e-24
5.18201 4.7 -1.88755 -0.000520541 -1.12141e-06 1.70979e-22
5.18201 4.7 1.88755 -0.000520541 -1.12141e-06 1.70979e-22
5.03092 4.7 -1.88755 -0.000539658 -1.15056e-06 1.76475e-22
5.03092 4.7 1.88755 -0.000539658 -1.15056e-06 1.76475e-22
4.88305 4.7 -1.88755 -0.000561128 -1.1779e-06 0
4.88305 4.7 1.88755 -0.000561128 -1.1779e-06 0
4.73831 4.7 -1.88755 -0.000585007 -1.2034e-06 0
4.73831 4.7 1.88755 -0.000585007 -1.2034e-06 0
4.59665 4.7 -1.88755 -0.000611382 -1.22621e-06 -3.27049e-24
4.59665 4.7 1.88755 -0.000611382 -1.22621e-06 -3.27049e-24
4.458 4.7 -1.88755 -0.000640358 -1.24627e-06 6.76901e-24
4.458 4.7 1.88755 -0.000640358 -1.24627e-06 6.76901e-24
4.32229 4.7 -1.88755 -0.000672027 -1.2632e-06 1.09974e-22
4.32229 4.7 1.88755 -0.000672027 -1.2632e-06 1.09974e-22
4.18947 4.7 -1.88755 -0.000706492 -1.27708e-06 1.18914e-22
4.18947 4.7 1.88755 -0.000706492 -1.27708e-06 1.18914e-22
4.05947 4.7 -1.88755 -0.000743795 -1.28803e-06 0
4.05947 4.7 1.88755 -0.000743795 -1.28803e-06 0
3.93223 4.7 -1.88755 -0.000783995 -1.29375e-06 0
3.93223 4.7 1.88755 -0.000783995 -1.29375e-06 0
3.8077 4.7 -1.88755 -0.000827166 -1.29328e-06 -1.36734e-22
3.8077 4.7 1.88755 -0.000827166 -1.29328e-06 -1.36734e-22
3.68581 4.7 -1.88755 -0.000873386 -1.28915e-06 4.53234e-24
3.68581 4.7 1.88755 -0.000873386 -1.28915e-06 4.53234e-24
3.56652 4.7 -1.88755 -0.00092272 -1.28431e-06 1.50088e-22
3.56652 4.7 1.88755 -0.00092272 -1.28431e-06 1.50088e-22
3.44975 4.7 -1.88755 -0.000975232 -1.27587e-06 -4.84799e-24
3.44975 4.7 1.88755 -0.000975232 -1.27587e-06 -4.84799e-24
3.33547 4.7 -1.88755 -0.00103099 -1.26217e-06 0
3.33547 4.7 1.88755 -0.00103099 -1.26217e-06 0
3.22362 4.7 -1.88755 -0.00109007 -1.24279e-06 0
3.22362 4.7 1.88755 -0.00109007 -1.24279e-06 0
3.11414 4.7 -1.88755 -0.00115255 -1.21691e-06 1.80093e-22
3.11414 4.7 1.88755 -0.00115255 -1.21691e-06 1.80093e-22
3.00699 4.7 -1.88755 -0.0012185 -1.18464e-06 1.88449e-22
3.00699 4.7 1.88755 -0.0012185 -1.18464e-06 1.88449e-22
2.90212 4.7 -1.88755 -0.00128801 -1.14512e-06 0
2.90212 4.7 1.88755 -0.00128801 -1.14512e-06 0
2.79947 4.7 -1.88755 -0.00136114 -1.09782e-06 0
2.79947 4.7 1.88755 -0.00136114 -1.09782e-06 0
2.69901 4.7 -1.88755 -0.00143797 -1.04254e-06 -6.8212e-24
2.69901 4.7 1.88755 -0.00143797 -1.04254e-06 -6.8212e-24
2.60068 4.7 -1.88755 -0.00151859 -9.78484e-07 6.96713e-24
2.60068 4.7 1.88755 -0.00151859 -9.78484e-07 6.96713e-24
2.50444 4.7 -1.88755 -0.00160307 -9.0626e-07 0
2.50444 4.7 1.88755 -0.00160307 -9.0626e-07 0
2.41024 4.7 -1.88755 -0.0016915 -8.25191e-07 -3.89554e-24
2.41024 4.7 1.88755 -0.0016915 -8.25191e-07 -3.89554e-24
2.31805 4.7 -1.88755 -0.00178394 -7.33768e-07 3.97874e-24
2.31805 4.7 1.88755 -0.00178394 -7.33768e-07 3.97874e-24
2.22782 4.7 -1.88755 -0.00188044 -6.33068e-07 1.34516e-22
2.22782 4.7 1.88755 -0.00188044 -6.33068e-07 1.34516e-22
2.1395 4.7 -1.88755 -0.00198105 -5.19078e-07 0
2.1395 4.7 1.88755 -0.00198105 -5.19078e-07 0
2.05306 4.7 -1.88755 -0.00208581 -3.92925e-07 1.51346e-22
2.05306 4.7 1.88755 -0.00208581 -3.92925e-07 1.51346e-22
1.96845 4.7 -1.88755 -0.00219477 -2.54902e-07 -9.57395e-24
1.96845 4.7 1.88755 -0.00219477 -2.54902e-07 -9.57395e-24
1.88565 4.7 -1.88755 -0.00230798 -1.05726e-07 4.94213e-24
1.88565 4.7 1.88755 -0.00230798 -1.05726e-07 4.94213e-24
1.8046 4.7 -1.88755 -0.0024255 5.53789e-08 0
1.8046 4.7 1.88755 -0.0024255 5.53789e-08 0
1.72528 4.7 -1.88755 -0.00254734 2.29871e-07 1.79433e-22
1.72528 4.7 1.88755 -0.00254734 2.29871e-07 1.79433e-22
1.64764 4.7 -1.88755 -0.0026735 4.16814e-07 -5.61005e-24
1.64764 4.7 1.88755 -0.0026735 4.16814e-07 -5.61005e-24
1.57165 4.7 -1.88755 -0.00280397 6.14686e-07 1.89038e-22
1.57165 4.7 1.88755 -0.00280397 6.14686e-07 1.89038e-22
1.49727 4.7 -1.88755 -0.00293874 8.21152e-07 0
1.49727 4.7 1.88755 -0.00293874 8.21152e-07 0
1.42448 4.7 -1.88755 -0.00307774 1.03739e-06 3.23722e-24
1.42448 4.7 1.88755 -0.00307774 1.03739e-06 3.23722e-24
1.35323 4.7 -1.88755 -0.00322082 1.26752e-06 -3.30585e-24
1.35323 4.7 1.88755 -0.00322082 1.26752e-06 -3.30585e-24
1.2835 4.7 -1.88755 -0.00336771 1.51661e-06 1.11147e-22