# p  POINT_DATA 994
# x y z  p
76.848 3.84014e-15 1.88755 0.000155942
76.848 3.84014e-15 -1.88755 0.000155942
77.848 3.89022e-15 -1.88755 0.000155942
77.848 3.89022e-15 1.88755 0.000155942
75.8596 3.79065e-15 1.88755 0.000308269
75.8596 3.79065e-15 -1.88755 0.000308269
74.8826 3.74172e-15 1.88755 0.000558657
74.8826 3.74172e-15 -1.88755 0.000558657
73.9169 3.69337e-15 1.88755 0.000759994
73.9169 3.69337e-15 -1.88755 0.000759994
72.9624 3.64557e-15 1.88755 0.000977309
72.9624 3.64557e-15 -1.88755 0.000977309
72.019 3.59833e-15 1.88755 0.00118469
72.019 3.59833e-15 -1.88755 0.00118469
71.0865 3.55163e-15 1.88755 0.00139274
71.0865 3.55163e-15 -1.88755 0.00139274
70.1648 3.50547e-15 1.88755 0.00159779
70.1648 3.50547e-15 -1.88755 0.00159779
69.2537 3.45985e-15 1.88755 0.00180112
69.2537 3.45985e-15 -1.88755 0.00180112
68.3532 3.41476e-15 1.88755 0.00200304
68.3532 3.41476e-15 -1.88755 0.00200304
67.4632 3.37019e-15 1.88755 0.00220308
67.4632 3.37019e-15 -1.88755 0.00220308
66.5834 3.32613e-15 1.88755 0.00240121
66.5834 3.32613e-15 -1.88755 0.00240121
65.7138 3.28259e-15 1.88755 0.00259718
65.7138 3.28259e-15 -1.88755 0.00259718
64.8543 3.23955e-15 1.88755 0.00279118
64.8543 3.23955e-15 -1.88755 0.00279118
64.0048 3.19701e-15 1.88755 0.00298291
64.0048 3.19701e-15 -1.88755 0.00298291
63.1651 3.15496e-15 1.88755 0.00317239
63.1651 3.15496e-15 -1.88755 0.00317239
62.3351 3.11339e-15 1.88755 0.00335899
62.3351 3.11339e-15 -1.88755 0.00335899
61.5147 3.07231e-15 1.88755 0.00354417
61.5147 3.07231e-15 -1.88755 0.00354417
60.7038 3.03171e-15 1.88755 0.00372845
60.7038 3.03171e-15 -1.88755 0.00372845
59.9024 2.99157e-15 1.88755 0.00391162
59.9024 2.99157e-15 -1.88755 0.00391162
59.1102 2.9519e-15 1.88755 0.00409229
59.1102 2.9519e-15 -1.88755 0.00409229
58.3271 2.91269e-15 1.88755 0.00427106
58.3271 2.91269e-15 -1.88755 0.00427106
57.5532 2.87393e-15 1.88755 0.00444781
57.5532 2.87393e-15 -1.88755 0.00444781
56.7882 2.83562e-15 1.88755 0.00462159
56.7882 2.83562e-15 -1.88755 0.00462159
56.032 2.79776e-15 1.88755 0.00479281
56.032 2.79776e-15 -1.88755 0.00479281
55.2846 2.76033e-15 1.88755 0.00496223
55.2846 2.76033e-15 -1.88755 0.00496223
54.5459 2.72334e-15 1.88755 0.00512934
54.5459 2.72334e-15 -1.88755 0.00512934
53.8157 2.68678e-15 1.88755 0.00529411
53.8157 2.68678e-15 -1.88755 0.00529411
53.094 2.65063e-15 1.88755 0.00545413
53.094 2.65063e-15 -1.88755 0.00545413
52.3806 2.61491e-15 1.88755 0.00561155
52.3806 2.61491e-15 -1.88755 0.00561155
51.6755 2.5796e-15 1.88755 0.00576596
51.6755 2.5796e-15 -1.88755 0.00576596
50.9785 2.5447e-15 1.88755 0.00591559
50.9785 2.5447e-15 -1.88755 0.00591559
50.2897 2.51021e-15 1.88755 0.00606126
50.2897 2.51021e-15 -1.88755 0.00606126
49.6088 2.47611e-15 1.88755 0.00620458
49.6088 2.47611e-15 -1.88755 0.00620458
48.9358 2.44241e-15 1.88755 0.00634374
48.9358 2.44241e-15 -1.88755 0.00634374
48.2705 2.4091e-15 1.88755 0.00647893
48.2705 2.4091e-15 -1.88755 0.00647893
47.613 2.37617e-15 1.88755 0.00660935
47.613 2.37617e-15 -1.88755 0.00660935
46.9631 2.34362e-15 1.88755 0.00673381
46.9631 2.34362e-15 -1.88755 0.00673381
46.3207 2.31146e-15 1.88755 0.00685565
46.3207 2.31146e-15 -1.88755 0.00685565
45.6858 2.27966e-15 1.88755 0.00697354
45.6858 2.27966e-15 -1.88755 0.00697354
45.0582 2.24823e-15 1.88755 0.0070846
45.0582 2.24823e-15 -1.88755 0.0070846
44.4379 2.21717e-15 1.88755 0.00718728
44.4379 2.21717e-15 -1.88755 0.00718728
43.8248 2.18647e-15 1.88755 0.00727923
43.8248 2.18647e-15 -1.88755 0.00727923
43.2187 2.15612e-15 1.88755 0.00736557
43.2187 2.15612e-15 -1.88755 0.00736557
42.6197 2.12612e-15 1.88755 0.00744443
42.6197 2.12612e-15 -1.88755 0.00744443
42.0276 2.09647e-15 1.88755 0.00750974
42.0276 2.09647e-15 -1.88755 0.00750974
41.4424 2.06717e-15 1.88755 0.00757268
41.4424 2.06717e-15 -1.88755 0.00757268
40.8639 2.0382e-15 1.88755 0.00762904
40.8639 2.0382e-15 -1.88755 0.00762904
40.2922 2.00957e-15 1.88755 0.0076669
40.2922 2.00957e-15 -1.88755 0.0076669
39.727 1.98127e-15 1.88755 0.00769279
39.727 1.98127e-15 -1.88755 0.00769279
39.1685 1.9533e-15 1.88755 0.00770264
39.1685 1.9533e-15 -1.88755 0.00770264
38.6163 1.92565e-15 1.88755 0.00769725
38.6163 1.92565e-15 -1.88755 0.00769725
38.0706 1.89832e-15 1.88755 0.00767678
38.0706 1.89832e-15 -1.88755 0.00767678
37.5312 1.87131e-15 1.88755 0.00763649
37.5312 1.87131e-15 -1.88755 0.00763649
36.998 1.84461e-15 1.88755 0.00757406
36.998 1.84461e-15 -1.88755 0.00757406
36.4711 1.81822e-15 1.88755 0.00748839
36.4711 1.81822e-15 -1.88755 0.00748839
35.9502 1.79214e-15 1.88755 0.00737122
35.9502 1.79214e-15 -1.88755 0.00737122
35.4353 1.76636e-15 1.88755 0.00724396
35.4353 1.76636e-15 -1.88755 0.00724396
34.9264 1.74087e-15 1.88755 0.00708615
34.9264 1.74087e-15 -1.88755 0.00708615
34.4234 1.71568e-15 1.88755 0.00689663
34.4234 1.71568e-15 -1.88755 0.00689663
33.9204 1.6905e-15 1.88755 0.00667022
33.9204 1.6905e-15 -1.88755 0.00667022
33.4352 1.6662e-15 1.88755 0.00640283
33.4352 1.6662e-15 -1.88755 0.00640283
32.9672 1.64276e-15 1.88755 0.0061018
32.9672 1.64276e-15 -1.88755 0.0061018
32.5157 1.62016e-15 1.88755 0.00575953
32.5157 1.62016e-15 -1.88755 0.00575953
32.0803 1.59835e-15 1.88755 0.00537889
32.0803 1.59835e-15 -1.88755 0.00537889
31.6602 1.57731e-15 1.88755 0.00495209
31.6602 1.57731e-15 -1.88755 0.00495209
31.255 1.55702e-15 1.88755 0.00448352
31.255 1.55702e-15 -1.88755 0.00448352
30.8642 1.53745e-15 1.88755 0.00396455
30.8642 1.53745e-15 -1.88755 0.00396455
30.4871 1.51857e-15 1.88755 0.00339531
30.4871 1.51857e-15 -1.88755 0.00339531
30.1235 1.50036e-15 1.88755 0.00277219
30.1235 1.50036e-15 -1.88755 0.00277219
29.7727 1.48279e-15 1.88755 0.00209217
29.7727 1.48279e-15 -1.88755 0.00209217
29.4343 1.46585e-15 1.88755 0.00135388
29.4343 1.46585e-15 -1.88755 0.00135388
29.1079 1.4495e-15 1.88755 0.000553946
29.1079 1.4495e-15 -1.88755 0.000553946
28.793 1.43374e-15 1.88755 -0.000307696
28.793 1.43374e-15 -1.88755 -0.000307696
28.4893 1.41853e-15 1.88755 -0.0012354
28.4893 1.41853e-15 -1.88755 -0.0012354
28.1964 1.40386e-15 1.88755 -0.0022277
28.1964 1.40386e-15 -1.88755 -0.0022277
27.9138 1.38971e-15 1.88755 -0.00328566
27.9138 1.38971e-15 -1.88755 -0.00328566
27.6412 1.37606e-15 1.88755 -0.00440843
27.6412 1.37606e-15 -1.88755 -0.00440843
27.3783 1.36289e-15 1.88755 -0.00559796
27.3783 1.36289e-15 -1.88755 -0.00559796
27.1246 1.35019e-15 1.88755 -0.00685487
27.1246 1.35019e-15 -1.88755 -0.00685487
26.88 1.33794e-15 1.88755 -0.008182
26.88 1.33794e-15 -1.88755 -0.008182
26.644 1.32612e-15 1.88755 -0.0095672
26.644 1.32612e-15 -1.88755 -0.0095672
26.4164 1.31472e-15 1.88755 -0.010996
26.4164 1.31472e-15 -1.88755 -0.010996
26.1968 1.30373e-15 1.88755 -0.0124777
26.1968 1.30373e-15 -1.88755 -0.0124777
25.985 1.29312e-15 1.88755 -0.0139972
25.985 1.29312e-15 -1.88755 -0.0139972
25.7807 1.28289e-15 1.88755 -0.0155448
25.7807 1.28289e-15 -1.88755 -0.0155448
25.5836 1.27302e-15 1.88755 -0.0171294
25.5836 1.27302e-15 -1.88755 -0.0171294
25.3935 1.2635e-15 1.88755 -0.0187447
25.3935 1.2635e-15 -1.88755 -0.0187447
25.2101 1.25432e-15 1.88755 -0.0203806
25.2101 1.25432e-15 -1.88755 -0.0203806
25.0332 1.24546e-15 1.88755 -0.0220292
25.0332 1.24546e-15 -1.88755 -0.0220292
24.8626 1.23692e-15 1.88755 -0.0236939
24.8626 1.23692e-15 -1.88755 -0.0236939
24.698 1.22867e-15 1.88755 -0.0253669
24.698 1.22867e-15 -1.88755 -0.0253669
24.5393 1.22072e-15 1.88755 -0.0270411
24.5393 1.22072e-15 -1.88755 -0.0270411
24.3861 1.21306e-15 1.88755 -0.0287186
24.3861 1.21306e-15 -1.88755 -0.0287186
24.2384 1.20566e-15 1.88755 -0.0303911
24.2384 1.20566e-15 -1.88755 -0.0303911
24.0959 1.19852e-15 1.88755 -0.0320552
24.0959 1.19852e-15 -1.88755 -0.0320552
23.9585 1.19164e-15 1.88755 -0.0337073
23.9585 1.19164e-15 -1.88755 -0.0337073
23.8259 1.185e-15 1.88755 -0.0353441
23.8259 1.185e-15 -1.88755 -0.0353441
23.698 1.1786e-15 1.88755 -0.0369651
23.698 1.1786e-15 -1.88755 -0.0369651
23.5746 1.17242e-15 1.88755 -0.038568
23.5746 1.17242e-15 -1.88755 -0.038568
23.4557 1.16646e-15 1.88755 -0.0401493
23.4557 1.16646e-15 -1.88755 -0.0401493
23.3409 1.16071e-15 1.88755 -0.0417054
23.3409 1.16071e-15 -1.88755 -0.0417054
23.2302 1.15517e-15 1.88755 -0.0432365
23.2302 1.15517e-15 -1.88755 -0.0432365
23.1234 1.14982e-15 1.88755 -0.0447404
23.1234 1.14982e-15 -1.88755 -0.0447404
23.0203 1.14466e-15 1.88755 -0.0462144
23.0203 1.14466e-15 -1.88755 -0.0462144
22.921 1.13969e-15 1.88755 -0.0476582
22.921 1.13969e-15 -1.88755 -0.0476582
22.8251 1.13489e-15 1.88755 -0.0490692
22.8251 1.13489e-15 -1.88755 -0.0490692
22.7326 1.13026e-15 1.88755 -0.0504458
22.7326 1.13026e-15 -1.88755 -0.0504458
22.6435 1.12579e-15 1.88755 -0.0517873
22.6435 1.12579e-15 -1.88755 -0.0517873
22.5574 1.12148e-15 1.88755 -0.0530931
22.5574 1.12148e-15 -1.88755 -0.0530931
22.4744 1.11733e-15 1.88755 -0.0543616
22.4744 1.11733e-15 -1.88755 -0.0543616
22.3944 1.11332e-15 1.88755 -0.0555922
22.3944 1.11332e-15 -1.88755 -0.0555922
22.3172 1.10945e-15 1.88755 -0.0567841
22.3172 1.10945e-15 -1.88755 -0.0567841
22.2427 1.10572e-15 1.88755 -0.0579365
22.2427 1.10572e-15 -1.88755 -0.0579365
22.1708 1.10212e-15 1.88755 -0.0590482
22.1708 1.10212e-15 -1.88755 -0.0590482
22.1015 1.09865e-15 1.88755 -0.0601182
22.1015 1.09865e-15 -1.88755 -0.0601182
22.0347 1.0953e-15 1.88755 -0.061145
22.0347 1.0953e-15 -1.88755 -0.061145
21.9702 1.09208e-15 1.88755 -0.062126
21.9702 1.09208e-15 -1.88755 -0.062126
21.908 1.08896e-15 1.88755 -0.0630567
21.908 1.08896e-15 -1.88755 -0.0630567
21.848 1.73472e-15 1.88755 -0.0639323
21.848 1.73472e-15 -1.88755 -0.0639323
21.7876 0.000188157 1.88755 -0.0647463
21.7876 0.000188157 -1.88755 -0.0647463
21.7272 0.00075262 1.88755 -0.0655317
21.7272 0.00075262 -1.88755 -0.0655317
21.6668 0.00169337 1.88755 -0.066324
21.6668 0.00169337 -1.88755 -0.066324
21.6063 0.00301036 1.88755 -0.0671158
21.6063 0.00301036 -1.88755 -0.0671158
21.546 0.00470355 1.88755 -0.0679026
21.546 0.00470355 -1.88755 -0.0679026
21.4856 0.00677288 1.88755 -0.0686851
21.4856 0.00677288 -1.88755 -0.0686851
21.4252 0.00921825 1.88755 -0.0694636
21.4252 0.00921825 -1.88755 -0.0694636
21.3649 0.0120396 1.88755 -0.0702371
21.3649 0.0120396 -1.88755 -0.0702371
21.3045 0.0152368 1.88755 -0.0710054
21.3045 0.0152368 -1.88755 -0.0710054
21.2442 0.0188097 1.88755 -0.071768
21.2442 0.0188097 -1.88755 -0.071768
21.1839 0.0227581 1.88755 -0.0725248
21.1839 0.0227581 -1.88755 -0.0725248
21.1237 0.0270821 1.88755 -0.0732758
21.1237 0.0270821 -1.88755 -0.0732758
21.0634 0.0317812 1.88755 -0.0740205
21.0634 0.0317812 -1.88755 -0.0740205
21.0032 0.0368555 1.88755 -0.0747593
21.0032 0.0368555 -1.88755 -0.0747593
20.9431 0.0423046 1.88755 -0.0754918
20.9431 0.0423046 -1.88755 -0.0754918
20.8829 0.0481284 1.88755 -0.0762183
20.8829 0.0481284 -1.88755 -0.0762183
20.8228 0.0543267 1.88755 -0.0769386
20.8228 0.0543267 -1.88755 -0.0769386
20.7628 0.0608992 1.88755 -0.077653
20.7628 0.0608992 -1.88755 -0.077653
20.7027 0.0678456 1.88755 -0.0783617
20.7027 0.0678456 -1.88755 -0.0783617
20.6428 0.0751657 1.88755 -0.0790651
20.6428 0.0751657 -1.88755 -0.0790651
20.5828 0.0828592 1.88755 -0.0797637
20.5828 0.0828592 -1.88755 -0.0797637
20.523 0.0909258 1.88755 -0.0804582
20.523 0.0909258 -1.88755 -0.0804582
20.4631 0.0993652 1.88755 -0.0811498
20.4631 0.0993652 -1.88755 -0.0811498
20.4034 0.108177 1.88755 -0.08184
20.4034 0.108177 -1.88755 -0.08184
20.3437 0.117361 1.88755 -0.082531
20.3437 0.117361 -1.88755 -0.082531
20.284 0.126917 1.88755 -0.0832261
20.284 0.126917 -1.88755 -0.0832261
20.2244 0.136844 1.88755 -0.0839318
20.2244 0.136844 -1.88755 -0.0839318
20.1649 0.147142 1.88755 -0.0846544
20.1649 0.147142 -1.88755 -0.0846544
20.1058 0.157553 1.88755 -0.0854225
20.1058 0.157553 -1.88755 -0.0854225
20.0454 0.168194 1.88755 -0.0862198
20.0454 0.168194 -1.88755 -0.0862198
19.9837 0.17907 1.88755 -0.0870064
19.9837 0.17907 -1.88755 -0.0870064
19.9206 0.190185 1.88755 -0.0877943
19.9206 0.190185 -1.88755 -0.0877943
19.8561 0.201547 1.88755 -0.0885922
19.8561 0.201547 -1.88755 -0.0885922
19.7902 0.213159 1.88755 -0.0894004
19.7902 0.213159 -1.88755 -0.0894004
19.7228 0.225027 1.88755 -0.0902195
19.7228 0.225027 -1.88755 -0.0902195
19.654 0.237157 1.88755 -0.0910514
19.654 0.237157 -1.88755 -0.0910514
19.5836 0.249555 1.88755 -0.0918973
19.5836 0.249555 -1.88755 -0.0918973
19.5117 0.262227 1.88755 -0.0927583
19.5117 0.262227 -1.88755 -0.0927583
19.4382 0.275178 1.88755 -0.0936356
19.4382 0.275178 -1.88755 -0.0936356
19.363 0.288415 1.88755 -0.0945301
19.363 0.288415 -1.88755 -0.0945301
19.2863 0.301945 1.88755 -0.0954428
19.2863 0.301945 -1.88755 -0.0954428
19.2078 0.315773 1.88755 -0.0963748
19.2078 0.315773 -1.88755 -0.0963748
19.1276 0.329906 1.88755 -0.0973272
19.1276 0.329906 -1.88755 -0.0973272
19.0456 0.344351 1.88755 -0.098301
19.0456 0.344351 -1.88755 -0.098301
18.9618 0.359115 1.88755 -0.0992971
18.9618 0.359115 -1.88755 -0.0992971
18.8761 0.374205 1.88755 -0.100317
18.8761 0.374205 -1.88755 -0.100317
18.7886 0.389628 1.88755 -0.101361
18.7886 0.389628 -1.88755 -0.101361
18.6991 0.405391 1.88755 -0.10243
18.6991 0.405391 -1.88755 -0.10243
18.6077 0.421503 1.88755 -0.103526
18.6077 0.421503 -1.88755 -0.103526
18.5142 0.43797 1.88755 -0.10465
18.5142 0.43797 -1.88755 -0.10465
18.4187 0.4548 1.88755 -0.105802
18.4187 0.4548 -1.88755 -0.105802
18.3211 0.472002 1.88755 -0.106983
18.3211 0.472002 -1.88755 -0.106983
18.2213 0.489584 1.88755 -0.108195
18.2213 0.489584 -1.88755 -0.108195
18.1193 0.507553 1.88755 -0.109438
18.1193 0.507553 -1.88755 -0.109438
18.015 0.52592 1.88755 -0.110713
18.015 0.52592 -1.88755 -0.110713
17.9085 0.544691 1.88755 -0.112021
17.9085 0.544691 -1.88755 -0.112021
17.7996 0.563878 1.88755 -0.113363
17.7996 0.563878 -1.88755 -0.113363
17.6883 0.583487 1.88755 -0.114739
17.6883 0.583487 -1.88755 -0.114739
17.5746 0.60353 1.88755 -0.116151
17.5746 0.60353 -1.88755 -0.116151
17.4583 0.624014 1.88755 -0.117599
17.4583 0.624014 -1.88755 -0.117599
17.3395 0.644951 1.88755 -0.119084
17.3395 0.644951 -1.88755 -0.119084
17.218 0.66635 1.88755 -0.120607
17.218 0.66635 -1.88755 -0.120607
17.0939 0.688222 1.88755 -0.122168
17.0939 0.688222 -1.88755 -0.122168
16.967 0.710576 1.88755 -0.123768
16.967 0.710576 -1.88755 -0.123768
16.8373 0.733423 1.88755 -0.125409
16.8373 0.733423 -1.88755 -0.125409
16.7048 0.756775 1.88755 -0.12709
16.7048 0.756775 -1.88755 -0.12709
16.5693 0.780643 1.88755 -0.128814
16.5693 0.780643 -1.88755 -0.128814
16.4309 0.805037 1.88755 -0.13058
16.4309 0.805037 -1.88755 -0.13058
16.2894 0.829969 1.88755 -0.132389
16.2894 0.829969 -1.88755 -0.132389
16.1447 0.855452 1.88755 -0.134244
16.1447 0.855452 -1.88755 -0.134244
15.9969 0.881498 1.88755 -0.136145
15.9969 0.881498 -1.88755 -0.136145
15.8458 0.908118 1.88755 -0.138094
15.8458 0.908118 -1.88755 -0.138094
15.6914 0.935326 1.88755 -0.140092
15.6914 0.935326 -1.88755 -0.140092
15.5336 0.963134 1.88755 -0.142139
15.5336 0.963134 -1.88755 -0.142139
15.3722 0.991557 1.88755 -0.14424
15.3722 0.991557 -1.88755 -0.14424
15.2074 1.02061 1.88755 -0.146393
15.2074 1.02061 -1.88755 -0.146393
15.0389 1.0503 1.88755 -0.148602
15.0389 1.0503 -1.88755 -0.148602
14.8666 1.08064 1.88755 -0.150867
14.8666 1.08064 -1.88755 -0.150867
14.6906 1.11166 1.88755 -0.15319
14.6906 1.11166 -1.88755 -0.15319
14.5107 1.14336 1.88755 -0.155573
14.5107 1.14336 -1.88755 -0.155573
14.3268 1.17576 1.88755 -0.158016
14.3268 1.17576 -1.88755 -0.158016
14.1388 1.20888 1.88755 -0.160522
14.1388 1.20888 -1.88755 -0.160522
13.9467 1.24272 1.88755 -0.163095
13.9467 1.24272 -1.88755 -0.163095
13.7504 1.27731 1.88755 -0.165736
13.7504 1.27731 -1.88755 -0.165736
13.5497 1.31267 1.88755 -0.168448
13.5497 1.31267 -1.88755 -0.168448
13.3446 1.34881 1.88755 -0.171236
13.3446 1.34881 -1.88755 -0.171236
13.135 1.38574 1.88755 -0.1741
13.135 1.38574 -1.88755 -0.1741
12.9207 1.42349 1.88755 -0.177042
12.9207 1.42349 -1.88755 -0.177042
12.7017 1.46208 1.88755 -0.180071
12.7017 1.46208 -1.88755 -0.180071
12.4779 1.50151 1.88755 -0.183198
12.4779 1.50151 -1.88755 -0.183198
12.2491 1.54182 1.88755 -0.186427
12.2491 1.54182 -1.88755 -0.186427
12.0153 1.58301 1.88755 -0.189772
12.0153 1.58301 -1.88755 -0.189772
11.7763 1.62512 1.88755 -0.193244
11.7763 1.62512 -1.88755 -0.193244
11.5321 1.66815 1.88755 -0.196857
11.5321 1.66815 -1.88755 -0.196857
11.2825 1.71214 1.88755 -0.200628
11.2825 1.71214 -1.88755 -0.200628
11.0273 1.75709 1.88755 -0.20457
11.0273 1.75709 -1.88755 -0.20457
10.7665 1.80304 1.88755 -0.208712
10.7665 1.80304 -1.88755 -0.208712
10.5 1.85 1.88755 -0.213071
10.5 1.85 -1.88755 -0.213071
10.2335 1.89696 1.88755 -0.217626
10.2335 1.89696 -1.88755 -0.217626
9.97268 1.94291 1.88755 -0.222298
9.97268 1.94291 -1.88755 -0.222298
9.71754 1.98786 1.88755 -0.227024
9.71754 1.98786 -1.88755 -0.227024
9.4679 2.03185 1.88755 -0.231811
9.4679 2.03185 -1.88755 -0.231811
9.22365 2.07488 1.88755 -0.236673
9.22365 2.07488 -1.88755 -0.236673
8.98468 2.11699 1.88755 -0.241608
8.98468 2.11699 -1.88755 -0.241608
8.75087 2.15818 1.88755 -0.246621
8.75087 2.15818 -1.88755 -0.246621
8.5221 2.19849 1.88755 -0.251711
8.5221 2.19849 -1.88755 -0.251711
8.29828 2.23792 1.88755 -0.256877
8.29828 2.23792 -1.88755 -0.256877
8.0793 2.27651 1.88755 -0.262137
8.0793 2.27651 -1.88755 -0.262137
7.86504 2.31426 1.88755 -0.267495
7.86504 2.31426 -1.88755 -0.267495
7.6554 2.35119 1.88755 -0.272961
7.6554 2.35119 -1.88755 -0.272961
7.4503 2.38733 1.88755 -0.278539
7.4503 2.38733 -1.88755 -0.278539
7.24963 2.42269 1.88755 -0.284231
7.24963 2.42269 -1.88755 -0.284231
7.05328 2.45728 1.88755 -0.29005
7.05328 2.45728 -1.88755 -0.29005
6.86118 2.49112 1.88755 -0.296017
6.86118 2.49112 -1.88755 -0.296017
6.67323 2.52424 1.88755 -0.302136
6.67323 2.52424 -1.88755 -0.302136
6.48934 2.55664 1.88755 -0.308421
6.48934 2.55664 -1.88755 -0.308421
6.30942 2.58834 1.88755 -0.314876
6.30942 2.58834 -1.88755 -0.314876
6.13338 2.61936 1.88755 -0.321522
6.13338 2.61936 -1.88755 -0.321522
5.96114 2.6497 1.88755 -0.328374
5.96114 2.6497 -1.88755 -0.328374
5.79263 2.67939 1.88755 -0.335442
5.79263 2.67939 -1.88755 -0.335442
5.62775 2.70844 1.88755 -0.342733
5.62775 2.70844 -1.88755 -0.342733
5.46644 2.73687 1.88755 -0.350267
5.46644 2.73687 -1.88755 -0.350267
5.30861 2.76467 1.88755 -0.358062
5.30861 2.76467 -1.88755 -0.358062
5.15418 2.79188 1.88755 -0.366121
5.15418 2.79188 -1.88755 -0.366121
5.0031 2.8185 1.88755 -0.374455
5.0031 2.8185 -1.88755 -0.374455
4.85527 2.84455 1.88755 -0.383069
4.85527 2.84455 -1.88755 -0.383069
4.71064 2.87003 1.88755 -0.391969
4.71064 2.87003 -1.88755 -0.391969
4.56913 2.89496 1.88755 -0.401146
4.56913 2.89496 -1.88755 -0.401146
4.43067 2.91936 1.88755 -0.410608
4.43067 2.91936 -1.88755 -0.410608
4.29521 2.94322 1.88755 -0.420362
4.29521 2.94322 -1.88755 -0.420362
4.16267 2.96658 1.88755 -0.4304
4.16267 2.96658 -1.88755 -0.4304
4.033 2.98942 1.88755 -0.440728
4.033 2.98942 -1.88755 -0.440728
3.90612 3.01178 1.88755 -0.45135
3.90612 3.01178 -1.88755 -0.45135
3.78199 3.03365 1.88755 -0.462262
3.78199 3.03365 -1.88755 -0.462262
3.66053 3.05505 1.88755 -0.473462
3.66053 3.05505 -1.88755 -0.473462
3.5417 3.07599 1.88755 -0.484953
3.5417 3.07599 -1.88755 -0.484953
3.42544 3.09647 1.88755 -0.496742
3.42544 3.09647 -1.88755 -0.496742
3.31168 3.11651 1.88755 -0.508814
3.31168 3.11651 -1.88755 -0.508814
3.20039 3.13612 1.88755 -0.521176
3.20039 3.13612 -1.88755 -0.521176
3.09149 3.15531 1.88755 -0.533843
3.09149 3.15531 -1.88755 -0.533843
2.98495 3.17408 1.88755 -0.546798
2.98495 3.17408 -1.88755 -0.546798
2.88071 3.19245 1.88755 -0.560044
2.88071 3.19245 -1.88755 -0.560044
2.77872 3.21042 1.88755 -0.5736
2.77872 3.21042 -1.88755 -0.5736
2.67893 3.228 1.88755 -0.587454
2.67893 3.228 -1.88755 -0.587454
2.5813 3.2452 1.88755 -0.601598
2.5813 3.2452 -1.88755 -0.601598
2.48577 3.26203 1.88755 -0.616054
2.48577 3.26203 -1.88755 -0.616054
2.39231 3.2785 1.88755 -0.630814
2.39231 3.2785 -1.88755 -0.630814
2.30087 3.29461 1.88755 -0.645866
2.30087 3.29461 -1.88755 -0.645866
2.2114 3.31037 1.88755 -0.661234
2.2114 3.31037 -1.88755 -0.661234
2.12387 3.3258 1.88755 -0.676916
2.12387 3.3258 -1.88755 -0.676916
2.03822 3.34088 1.88755 -0.692896
2.03822 3.34088 -1.88755 -0.692896
1.95442 3.35565 1.88755 -0.709198
1.95442 3.35565 -1.88755 -0.709198
1.87244 3.37009 1.88755 -0.725828
1.87244 3.37009 -1.88755 -0.725828
1.79222 3.38423 1.88755 -0.742768
1.79222 3.38423 -1.88755 -0.742768
1.71374 3.39806 1.88755 -0.760049
1.71374 3.39806 -1.88755 -0.760049
1.63695 3.41158 1.88755 -0.777678
1.63695 3.41158 -1.88755 -0.777678
1.56182 3.42482 1.88755 -0.795652
1.56182 3.42482 -1.88755 -0.795652
1.48831 3.43777 1.88755 -0.813998
1.48831 3.43777 -1.88755 -0.813998
1.41639 3.45044 1.88755 -0.832744
1.41639 3.45044 -1.88755 -0.832744
1.34603 3.46284 1.88755 -0.851895
1.34603 3.46284 -1.88755 -0.851895
1.27718 3.47497 1.88755 -0.871494
1.27718 3.47497 -1.88755 -0.871494
1.20982 3.48684 1.88755 -0.891577
1.20982 3.48684 -1.88755 -0.891577
1.14391 3.49845 1.88755 -0.91218
1.14391 3.49845 -1.88755 -0.91218
1.07943 3.50981 1.88755 -0.933377
1.07943 3.50981 -1.88755 -0.933377
1.01634 3.52093 1.88755 -0.955233
1.01634 3.52093 -1.88755 -0.955233
0.954614 3.53181 1.88755 -0.977752
0.954614 3.53181 -1.88755 -0.977752
0.89422 3.54245 1.88755 -1.00097
0.89422 3.54245 -1.88755 -1.00097
0.83513 3.55286 1.88755 -1.0256
0.83513 3.55286 -1.88755 -1.0256
0.775596 3.56316 1.88755 -1.05047
0.775596 3.56316 -1.88755 -1.05047
0.716 3.57308 1.88755 -1.07467
0.716 3.57308 -1.88755 -1.07467
0.656344 3.58264 1.88755 -1.09892
0.656344 3.58264 -1.88755 -1.09892
0.596628 3.59182 1.88755 -1.12273
0.596628 3.59182 -1.88755 -1.12273
0.536857 3.60063 1.88755 -1.14611
0.536857 3.60063 -1.88755 -1.14611
0.477032 3.60907 1.88755 -1.16894
0.477032 3.60907 -1.88755 -1.16894
0.417156 3.61714 1.88755 -1.19114
0.417156 3.61714 -1.88755 -1.19114
0.357231 3.62483 1.88755 -1.21263
0.357231 3.62483 -1.88755 -1.21263
0.297259 3.63215 1.88755 -1.23337
0.297259 3.63215 -1.88755 -1.23337
0.237242 3.6391 1.88755 -1.25329
0.237242 3.6391 -1.88755 -1.25329
0.177183 3.64567 1.88755 -1.2723
0.177183 3.64567 -1.88755 -1.2723
0.117085 3.65187 1.88755 -1.29034
0.117085 3.65187 -1.88755 -1.29034
0.056949 3.6577 1.88755 -1.30735
0.056949 3.6577 -1.88755 -1.30735
-0.00322198 3.66314 1.88755 -1.32326
-0.00322198 3.66314 -1.88755 -1.32326
-0.0634257 3.66822 1.88755 -1.33803
-0.0634257 3.66822 -1.88755 -1.33803
-0.12366 3.67292 1.88755 -1.35158
-0.12366 3.67292 -1.88755 -1.35158
-0.183922 3.67724 1.88755 -1.36385
-0.183922 3.67724 -1.88755 -1.36385
-0.24421 3.68119 1.88755 -1.37477
-0.24421 3.68119 -1.88755 -1.37477
-0.304522 3.68476 1.88755 -1.38427
-0.304522 3.68476 -1.88755 -1.38427
-0.364854 3.68796 1.88755 -1.39225
-0.364854 3.68796 -1.88755 -1.39225
-0.425206 3.69078 1.88755 -1.39863
-0.425206 3.69078 -1.88755 -1.39863
-0.485573 3.69323 1.88755 -1.40331
-0.485573 3.69323 -1.88755 -1.40331
-0.545955 3.6953 1.88755 -1.40618
-0.545955 3.6953 -1.88755 -1.40618
-0.606349 3.69699 1.88755 -1.40705
-0.606349 3.69699 -1.88755 -1.40705
-0.666752 3.69831 1.88755 -1.40579
-0.666752 3.69831 -1.88755 -1.40579
-0.727161 3.69925 1.88755 -1.4025
-0.727161 3.69925 -1.88755 -1.4025
-0.787576 3.69981 1.88755 -1.39645
-0.787576 3.69981 -1.88755 -1.39645
-0.847993 3.7 1.88755 -1.38472
-0.847993 3.7 -1.88755 -1.38472
-0.907993 3.7 1.88755 -1.37268
-0.907993 3.7 -1.88755 -1.37268
-0.970739 3.7 1.88755 -1.36443
-0.970739 3.7 -1.88755 -1.36443
-1.03636 3.7 1.88755 -1.35725
-1.03636 3.7 -1.88755 -1.35725
-1.10498 3.7 1.88755 -1.35118
-1.10498 3.7 -1.88755 -1.35118
-1.17674 3.7 1.88755 -1.34586
-1.17674 3.7 -1.88755 -1.34586
-1.25179 3.7 1.88755 -1.34116
-1.25179 3.7 -1.88755 -1.34116
-1.33028 3.7 1.88755 -1.33694
-1.33028 3.7 -1.88755 -1.33694
-1.41235 3.7 1.88755 -1.33313
-1.41235 3.7 -1.88755 -1.33313
-1.49818 3.7 1.88755 -1.32965
-1.49818 3.7 -1.88755 -1.32965
-1.58795 3.7 1.88755 -1.32644
-1.58795 3.7 -1.88755 -1.32644
-1.68182 3.7 1.88755 -1.32343
-1.68182 3.7 -1.88755 -1.32343
-1.77998 3.7 1.88755 -1.32059
-1.77998 3.7 -1.88755 -1.32059
-1.88265 3.7 1.88755 -1.31787
-1.88265 3.7 -1.88755 -1.31787
-1.99001 3.7 1.88755 -1.31524
-1.99001 3.7 -1.88755 -1.31524
-2.10228 3.7 1.88755 -1.31265
-2.10228 3.7 -1.88755 -1.31265
-2.2197 3.7 1.88755 -1.31009
-2.2197 3.7 -1.88755 -1.31009
-2.34248 3.7 1.88755 -1.30753
-2.34248 3.7 -1.88755 -1.30753
-2.47089 3.7 1.88755 -1.30495
-2.47089 3.7 -1.88755 -1.30495
-2.60518 3.7 1.88755 -1.30231
-2.60518 3.7 -1.88755 -1.30231
-2.74561 3.7 1.88755 -1.29962
-2.74561 3.7 -1.88755 -1.29962
-2.89248 3.7 1.88755 -1.29684
-2.89248 3.7 -1.88755 -1.29684
-3.04606 3.7 1.88755 -1.29397
-3.04606 3.7 -1.88755 -1.29397
-3.20668 3.7 1.88755 -1.29099
-3.20668 3.7 -1.88755 -1.29099
-3.37464 3.7 1.88755 -1.2879
-3.37464 3.7 -1.88755 -1.2879
-3.5503 3.7 1.88755 -1.28468
-3.5503 3.7 -1.88755 -1.28468
-3.73399 3.7 1.88755 -1.28132
-3.73399 3.7 -1.88755 -1.28132
-3.9261 3.7 1.88755 -1.27781
-3.9261 3.7 -1.88755 -1.27781
-4.127 3.7 1.88755 -1.27414
-4.127 3.7 -1.88755 -1.27414
-4.33709 3.7 1.88755 -1.27031
-4.33709 3.7 -1.88755 -1.27031
-4.5568 3.7 1.88755 -1.26631
-4.5568 3.7 -1.88755 -1.26631
-4.77651 3.7 1.88755 -1.26222
-4.77651 3.7 -1.88755 -1.26222
-4.99551 3.7 1.88755 -1.25814
-4.99551 3.7 -1.88755 -1.25814
-5.21381 3.7 1.88755 -1.25407
-5.21381 3.7 -1.88755 -1.25407
-5.43139 3.7 1.88755 -1.25002
-5.43139 3.7 -1.88755 -1.25002
-5.64827 3.7 1.88755 -1.24597
-5.64827 3.7 -1.88755 -1.24597
-5.86445 3.7 1.88755 -1.24195
-5.86445 3.7 -1.88755 -1.24195
-6.07993 3.7 1.88755 -1.23794
-6.07993 3.7 -1.88755 -1.23794
-6.29471 3.7 1.88755 -1.23394
-6.29471 3.7 -1.88755 -1.23394
-6.5088 3.7 1.88755 -1.22996
-6.5088 3.7 -1.88755 -1.22996
-6.72219 3.7 1.88755 -1.226
-6.72219 3.7 -1.88755 -1.226
-6.9349 3.7 1.88755 -1.22205
-6.9349 3.7 -1.88755 -1.22205
-7.14691 3.7 1.88755 -1.21811
-7.14691 3.7 -1.88755 -1.21811
-7.35824 3.7 1.88755 -1.21419
-7.35824 3.7 -1.88755 -1.21419
-7.56889 3.7 1.88755 -1.21029
-7.56889 3.7 -1.88755 -1.21029
-7.77885 3.7 1.88755 -1.2064
-7.77885 3.7 -1.88755 -1.2064
-7.98813 3.7 1.88755 -1.20252
-7.98813 3.7 -1.88755 -1.20252
-8.19674 3.7 1.88755 -1.19867
-8.19674 3.7 -1.88755 -1.19867
-8.40467 3.7 1.88755 -1.19483
-8.40467 3.7 -1.88755 -1.19483
-8.61193 3.7 1.88755 -1.191
-8.61193 3.7 -1.88755 -1.191
-8.81852 3.7 1.88755 -1.18719
-8.81852 3.7 -1.88755 -1.18719
-9.02444 3.7 1.88755 -1.18339
-9.02444 3.7 -1.88755 -1.18339
-9.2297 3.7 1.88755 -1.1796
-9.2297 3.7 -1.88755 -1.1796
-9.43428 3.7 1.88755 -1.17583
-9.43428 3.7 -1.88755 -1.17583
-9.63821 3.7 1.88755 -1.17206
-9.63821 3.7 -1.88755 -1.17206
-9.84148 3.7 1.88755 -1.16831
-9.84148 3.7 -1.88755 -1.16831
-10.0441 3.7 1.88755 -1.16458
-10.0441 3.7 -1.88755 -1.16458
-10.246 3.7 1.88755 -1.16085
-10.246 3.7 -1.88755 -1.16085
-10.4473 3.7 1.88755 -1.15714
-10.4473 3.7 -1.88755 -1.15714
-10.648 3.7 1.88755 -1.15344
-10.648 3.7 -1.88755 -1.15344
-10.848 3.7 1.88755 -1.14966
-10.848 3.7 -1.88755 -1.14966
-59.848 3.7 1.88755 -0.232034
-60.848 3.7 1.88755 -0.232034
-60.848 3.7 -1.88755 -0.232034
-59.848 3.7 -1.88755 -0.232034
-58.8506 3.7 1.88755 -0.250358
-58.8506 3.7 -1.88755 -0.250358
-57.8559 3.7 1.88755 -0.268664
-57.8559 3.7 -1.88755 -0.268664
-56.8639 3.7 1.88755 -0.286949
-56.8639 3.7 -1.88755 -0.286949
-55.8744 3.7 1.88755 -0.305213
-55.8744 3.7 -1.88755 -0.305213
-54.8876 3.7 1.88755 -0.323451
-54.8876 3.7 -1.88755 -0.323451
-53.9034 3.7 1.88755 -0.34166
-53.9034 3.7 -1.88755 -0.34166
-52.9218 3.7 1.88755 -0.35984
-52.9218 3.7 -1.88755 -0.35984
-51.9429 3.7 1.88755 -0.377986
-51.9429 3.7 -1.88755 -0.377986
-50.9665 3.7 1.88755 -0.396095
-50.9665 3.7 -1.88755 -0.396095
-49.9927 3.7 1.88755 -0.414166
-49.9927 3.7 -1.88755 -0.414166
-49.0215 3.7 1.88755 -0.432196
-49.0215 3.7 -1.88755 -0.432196
-48.0528 3.7 1.88755 -0.450183
-48.0528 3.7 -1.88755 -0.450183
-47.0867 3.7 1.88755 -0.468127
-47.0867 3.7 -1.88755 -0.468127
-46.1232 3.7 1.88755 -0.486025
-46.1232 3.7 -1.88755 -0.486025
-45.1622 3.7 1.88755 -0.503876
-45.1622 3.7 -1.88755 -0.503876
-44.2038 3.7 1.88755 -0.521676
-44.2038 3.7 -1.88755 -0.521676
-43.248 3.7 1.88755 -0.539425
-43.248 3.7 -1.88755 -0.539425
-42.2946 3.7 1.88755 -0.557122
-42.2946 3.7 -1.88755 -0.557122
-41.3438 3.7 1.88755 -0.574769
-41.3438 3.7 -1.88755 -0.574769
-40.3955 3.7 1.88755 -0.592367
-40.3955 3.7 -1.88755 -0.592367
-39.4497 3.7 1.88755 -0.609916
-39.4497 3.7 -1.88755 -0.609916
-38.5065 3.7 1.88755 -0.627416
-38.5065 3.7 -1.88755 -0.627416
-37.5657 3.7 1.88755 -0.644866
-37.5657 3.7 -1.88755 -0.644866
-36.6274 3.7 1.88755 -0.662268
-36.6274 3.7 -1.88755 -0.662268
-35.6916 3.7 1.88755 -0.679621
-35.6916 3.7 -1.88755 -0.679621
-34.7583 3.7 1.88755 -0.696927
-34.7583 3.7 -1.88755 -0.696927
-33.8275 3.7 1.88755 -0.714185
-33.8275 3.7 -1.88755 -0.714185
-32.8991 3.7 1.88755 -0.731395
-32.8991 3.7 -1.88755 -0.731395
-31.9732 3.7 1.88755 -0.748558
-31.9732 3.7 -1.88755 -0.748558
-31.0498 3.7 1.88755 -0.765673
-31.0498 3.7 -1.88755 -0.765673
-30.1288 3.7 1.88755 -0.782743
-30.1288 3.7 -1.88755 -0.782743
-29.2102 3.7 1.88755 -0.799765
-29.2102 3.7 -1.88755 -0.799765
-28.2941 3.7 1.88755 -0.81674
-28.2941 3.7 -1.88755 -0.81674
-27.3804 3.7 1.88755 -0.833672
-27.3804 3.7 -1.88755 -0.833672
-26.4667 3.7 1.88755 -0.85058
-26.4667 3.7 -1.88755 -0.85058
-25.5929 3.7 1.88755 -0.867118
-25.5929 3.7 -1.88755 -0.867118
-24.7573 3.7 1.88755 -0.882933
-24.7573 3.7 -1.88755 -0.882933
-23.9582 3.7 1.88755 -0.898057
-23.9582 3.7 -1.88755 -0.898057
-23.1941 3.7 1.88755 -0.91252
-23.1941 3.7 -1.88755 -0.91252
-22.4633 3.7 1.88755 -0.92635
-22.4633 3.7 -1.88755 -0.92635
-21.7645 3.7 1.88755 -0.939574
-21.7645 3.7 -1.88755 -0.939574
-21.0962 3.7 1.88755 -0.952221
-21.0962 3.7 -1.88755 -0.952221
-20.4571 3.7 1.88755 -0.964315
-20.4571 3.7 -1.88755 -0.964315
-19.8459 3.7 1.88755 -0.97588
-19.8459 3.7 -1.88755 -0.97588
-19.2615 3.7 1.88755 -0.98694
-19.2615 3.7 -1.88755 -0.98694
-18.7026 3.7 1.88755 -0.997514
-18.7026 3.7 -1.88755 -0.997514
-18.1681 3.7 1.88755 -1.00763
-18.1681 3.7 -1.88755 -1.00763
-17.6569 3.7 1.88755 -1.0173
-17.6569 3.7 -1.88755 -1.0173