# p  POINT_DATA 994
# x y z  p
76.848 4.7 1.88755 -8.25059e-07
77.848 4.7 1.88755 -8.25059e-07
77.848 4.7 -1.88755 -8.25059e-07
76.848 4.7 -1.88755 -8.25059e-07
75.8596 4.7 -1.88755 0.000361988
75.8596 4.7 1.88755 0.000361988
74.8826 4.7 -1.88755 0.000498938
74.8826 4.7 1.88755 0.000498938
73.9169 4.7 -1.88755 0.000722138
73.9169 4.7 1.88755 0.000722138
72.9624 4.7 -1.88755 0.000916399
72.9624 4.7 1.88755 0.000916399
72.019 4.7 -1.88755 0.00112078
72.019 4.7 1.88755 0.00112078
71.0865 4.7 -1.88755 0.00131998
71.0865 4.7 1.88755 0.00131998
70.1648 4.7 -1.88755 0.00151987
70.1648 4.7 1.88755 0.00151987
69.2537 4.7 -1.88755 0.00171749
69.2537 4.7 1.88755 0.00171749
68.3532 4.7 -1.88755 0.00191294
68.3532 4.7 1.88755 0.00191294
67.4632 4.7 -1.88755 0.00210606
67.4632 4.7 1.88755 0.00210606
66.5834 4.7 -1.88755 0.00229689
66.5834 4.7 1.88755 0.00229689
65.7138 4.7 -1.88755 0.00248573
65.7138 4.7 1.88755 0.00248573
64.8543 4.7 -1.88755 0.00267341
64.8543 4.7 1.88755 0.00267341
64.0048 4.7 -1.88755 0.00285979
64.0048 4.7 1.88755 0.00285979
63.1651 4.7 -1.88755 0.00304445
63.1651 4.7 1.88755 0.00304445
62.3351 4.7 -1.88755 0.00322532
62.3351 4.7 1.88755 0.00322532
61.5147 4.7 -1.88755 0.0034038
61.5147 4.7 1.88755 0.0034038
60.7038 4.7 -1.88755 0.00357963
60.7038 4.7 1.88755 0.00357963
59.9024 4.7 -1.88755 0.0037508
59.9024 4.7 1.88755 0.0037508
59.1102 4.7 -1.88755 0.00392039
59.1102 4.7 1.88755 0.00392039
58.3271 4.7 -1.88755 0.00408477
58.3271 4.7 1.88755 0.00408477
57.5532 4.7 -1.88755 0.00424492
57.5532 4.7 1.88755 0.00424492
56.7882 4.7 -1.88755 0.00440395
56.7882 4.7 1.88755 0.00440395
56.032 4.7 -1.88755 0.00455845
56.032 4.7 1.88755 0.00455845
55.2846 4.7 -1.88755 0.00471022
55.2846 4.7 1.88755 0.00471022
54.5459 4.7 -1.88755 0.00485754
54.5459 4.7 1.88755 0.00485754
53.8157 4.7 -1.88755 0.00500147
53.8157 4.7 1.88755 0.00500147
53.094 4.7 -1.88755 0.00514171
53.094 4.7 1.88755 0.00514171
52.3806 4.7 -1.88755 0.00527615
52.3806 4.7 1.88755 0.00527615
51.6755 4.7 -1.88755 0.00540681
51.6755 4.7 1.88755 0.00540681
50.9785 4.7 -1.88755 0.00553276
50.9785 4.7 1.88755 0.00553276
50.2897 4.7 -1.88755 0.00565406
50.2897 4.7 1.88755 0.00565406
49.6088 4.7 -1.88755 0.00577008
49.6088 4.7 1.88755 0.00577008
48.9358 4.7 -1.88755 0.00587943
48.9358 4.7 1.88755 0.00587943
48.2705 4.7 -1.88755 0.00598132
48.2705 4.7 1.88755 0.00598132
47.613 4.7 -1.88755 0.00607625
47.613 4.7 1.88755 0.00607625
46.9631 4.7 -1.88755 0.00616414
46.9631 4.7 1.88755 0.00616414
46.3207 4.7 -1.88755 0.00624485
46.3207 4.7 1.88755 0.00624485
45.6858 4.7 -1.88755 0.00631698
45.6858 4.7 1.88755 0.00631698
45.0582 4.7 -1.88755 0.00637836
45.0582 4.7 1.88755 0.00637836
44.4379 4.7 -1.88755 0.00642752
44.4379 4.7 1.88755 0.00642752
43.8248 4.7 -1.88755 0.00646592
43.8248 4.7 1.88755 0.00646592
43.2187 4.7 -1.88755 0.00649423
43.2187 4.7 1.88755 0.00649423
42.6197 4.7 -1.88755 0.00650883
42.6197 4.7 1.88755 0.00650883
42.0276 4.7 -1.88755 0.00651036
42.0276 4.7 1.88755 0.00651036
41.4424 4.7 -1.88755 0.00649693
41.4424 4.7 1.88755 0.00649693
40.8639 4.7 -1.88755 0.00646499
40.8639 4.7 1.88755 0.00646499
40.2922 4.7 -1.88755 0.00641457
40.2922 4.7 1.88755 0.00641457
39.727 4.7 -1.88755 0.00634538
39.727 4.7 1.88755 0.00634538
39.1685 4.7 -1.88755 0.00625237
39.1685 4.7 1.88755 0.00625237
38.6163 4.7 -1.88755 0.00613471
38.6163 4.7 1.88755 0.00613471
38.0706 4.7 -1.88755 0.00599501
38.0706 4.7 1.88755 0.00599501
37.5312 4.7 -1.88755 0.00582127
37.5312 4.7 1.88755 0.00582127
36.998 4.7 -1.88755 0.00561298
36.998 4.7 1.88755 0.00561298
36.4711 4.7 -1.88755 0.00537425
36.4711 4.7 1.88755 0.00537425
35.9502 4.7 -1.88755 0.00510048
35.9502 4.7 1.88755 0.00510048
35.4353 4.7 -1.88755 0.0047841
35.4353 4.7 1.88755 0.0047841
34.9264 4.7 -1.88755 0.00442771
34.9264 4.7 1.88755 0.00442771
34.4234 4.7 -1.88755 0.00402263
34.4234 4.7 1.88755 0.00402263
33.9204 4.7 -1.88755 0.0035534
33.9204 4.7 1.88755 0.0035534
33.4352 4.7 -1.88755 0.0030255
33.4352 4.7 1.88755 0.0030255
32.9672 4.7 -1.88755 0.00244451
32.9672 4.7 1.88755 0.00244451
32.5157 4.7 -1.88755 0.00181379
32.5157 4.7 1.88755 0.00181379
32.0803 4.7 -1.88755 0.00112974
32.0803 4.7 1.88755 0.00112974
31.6602 4.7 -1.88755 0.000392966
31.6602 4.7 1.88755 0.000392966
31.255 4.7 -1.88755 -0.000390423
31.255 4.7 1.88755 -0.000390423
30.8642 4.7 -1.88755 -0.00123025
30.8642 4.7 1.88755 -0.00123025
30.4871 4.7 -1.88755 -0.00214246
30.4871 4.7 1.88755 -0.00214246
30.1235 4.7 -1.88755 -0.0031128
30.1235 4.7 1.88755 -0.0031128
29.7727 4.7 -1.88755 -0.00411078
29.7727 4.7 1.88755 -0.00411078
29.4343 4.7 -1.88755 -0.00516802
29.4343 4.7 1.88755 -0.00516802
29.1079 4.7 -1.88755 -0.00631472
29.1079 4.7 1.88755 -0.00631472
28.793 4.7 -1.88755 -0.00747993
28.793 4.7 1.88755 -0.00747993
28.4893 4.7 -1.88755 -0.00866225
28.4893 4.7 1.88755 -0.00866225
28.1964 4.7 -1.88755 -0.00987735
28.1964 4.7 1.88755 -0.00987735
27.9138 4.7 -1.88755 -0.0111441
27.9138 4.7 1.88755 -0.0111441
27.6412 4.7 -1.88755 -0.012464
27.6412 4.7 1.88755 -0.012464
27.3783 4.7 -1.88755 -0.0138096
27.3783 4.7 1.88755 -0.0138096
27.1246 4.7 -1.88755 -0.0151607
27.1246 4.7 1.88755 -0.0151607
26.88 4.7 -1.88755 -0.0165238
26.88 4.7 1.88755 -0.0165238
26.644 4.7 -1.88755 -0.0179624
26.644 4.7 1.88755 -0.0179624
26.4164 4.7 -1.88755 -0.0193927
26.4164 4.7 1.88755 -0.0193927
26.1968 4.7 -1.88755 -0.0207864
26.1968 4.7 1.88755 -0.0207864
25.985 4.7 -1.88755 -0.0221879
25.985 4.7 1.88755 -0.0221879
25.7807 4.7 -1.88755 -0.023603
25.7807 4.7 1.88755 -0.023603
25.5836 4.7 -1.88755 -0.0250627
25.5836 4.7 1.88755 -0.0250627
25.3935 4.7 -1.88755 -0.0265214
25.3935 4.7 1.88755 -0.0265214
25.2101 4.7 -1.88755 -0.0279634
25.2101 4.7 1.88755 -0.0279634
25.0332 4.7 -1.88755 -0.0293711
25.0332 4.7 1.88755 -0.0293711
24.8626 4.7 -1.88755 -0.0307705
24.8626 4.7 1.88755 -0.0307705
24.698 4.7 -1.88755 -0.0321202
24.698 4.7 1.88755 -0.0321202
24.5393 4.7 -1.88755 -0.0334581
24.5393 4.7 1.88755 -0.0334581
24.3861 4.7 -1.88755 -0.0348601
24.3861 4.7 1.88755 -0.0348601
24.2384 4.7 -1.88755 -0.0362441
24.2384 4.7 1.88755 -0.0362441
24.0959 4.7 -1.88755 -0.0375919
24.0959 4.7 1.88755 -0.0375919
23.9585 4.7 -1.88755 -0.038905
23.9585 4.7 1.88755 -0.038905
23.8259 4.7 -1.88755 -0.0401406
23.8259 4.7 1.88755 -0.0401406
23.698 4.7 -1.88755 -0.0413881
23.698 4.7 1.88755 -0.0413881
23.5746 4.7 -1.88755 -0.0426276
23.5746 4.7 1.88755 -0.0426276
23.4557 4.7 -1.88755 -0.0438473
23.4557 4.7 1.88755 -0.0438473
23.3409 4.7 -1.88755 -0.0450277
23.3409 4.7 1.88755 -0.0450277
23.2302 4.7 -1.88755 -0.0461605
23.2302 4.7 1.88755 -0.0461605
23.1234 4.7 -1.88755 -0.0473565
23.1234 4.7 1.88755 -0.0473565
23.0203 4.7 -1.88755 -0.0484499
23.0203 4.7 1.88755 -0.0484499
22.921 4.7 -1.88755 -0.0494395
22.921 4.7 1.88755 -0.0494395
22.8251 4.7 -1.88755 -0.0504066
22.8251 4.7 1.88755 -0.0504066
22.7326 4.7 -1.88755 -0.0513794
22.7326 4.7 1.88755 -0.0513794
22.6435 4.7 -1.88755 -0.0524329
22.6435 4.7 1.88755 -0.0524329
22.5574 4.7 -1.88755 -0.053402
22.5574 4.7 1.88755 -0.053402
22.4744 4.7 -1.88755 -0.0543018
22.4744 4.7 1.88755 -0.0543018
22.3944 4.7 -1.88755 -0.0551705
22.3944 4.7 1.88755 -0.0551705
22.3172 4.7 -1.88755 -0.0559727
22.3172 4.7 1.88755 -0.0559727
22.2427 4.7 -1.88755 -0.0567813
22.2427 4.7 1.88755 -0.0567813
22.1708 4.7 -1.88755 -0.0575941
22.1708 4.7 1.88755 -0.0575941
22.1015 4.7 -1.88755 -0.0583649
22.1015 4.7 1.88755 -0.0583649
22.0347 4.7 -1.88755 -0.0591243
22.0347 4.7 1.88755 -0.0591243
21.9702 4.7 -1.88755 -0.0599302
21.9702 4.7 1.88755 -0.0599302
21.908 4.7 -1.88755 -0.0606515
21.908 4.7 1.88755 -0.0606515
21.848 4.7 -1.88755 -0.0613217
21.848 4.7 1.88755 -0.0613217
21.7879 4.7 -1.88755 -0.0620354
21.7879 4.7 1.88755 -0.0620354
21.7278 4.7 -1.88755 -0.0627112
21.7278 4.7 1.88755 -0.0627112
21.6677 4.7 -1.88755 -0.063372
21.6677 4.7 1.88755 -0.063372
21.6075 4.7 -1.88755 -0.0640726
21.6075 4.7 1.88755 -0.0640726
21.5474 4.7 -1.88755 -0.0648081
21.5474 4.7 1.88755 -0.0648081
21.4873 4.7 -1.88755 -0.0655153
21.4873 4.7 1.88755 -0.0655153
21.4272 4.7 -1.88755 -0.0661784
21.4272 4.7 1.88755 -0.0661784
21.3671 4.7 -1.88755 -0.0668355
21.3671 4.7 1.88755 -0.0668355
21.307 4.7 -1.88755 -0.0674472
21.307 4.7 1.88755 -0.0674472
21.2469 4.7 -1.88755 -0.0680382
21.2469 4.7 1.88755 -0.0680382
21.1868 4.7 -1.88755 -0.0686539
21.1868 4.7 1.88755 -0.0686539
21.1267 4.7 -1.88755 -0.0693214
21.1267 4.7 1.88755 -0.0693214
21.0665 4.7 -1.88755 -0.0700462
21.0665 4.7 1.88755 -0.0700462
21.0064 4.7 -1.88755 -0.0707859
21.0064 4.7 1.88755 -0.0707859
20.9463 4.7 -1.88755 -0.0715106
20.9463 4.7 1.88755 -0.0715106
20.8862 4.7 -1.88755 -0.0722244
20.8862 4.7 1.88755 -0.0722244
20.8261 4.7 -1.88755 -0.0729368
20.8261 4.7 1.88755 -0.0729368
20.766 4.7 -1.88755 -0.0736468
20.766 4.7 1.88755 -0.0736468
20.7059 4.7 -1.88755 -0.0743567
20.7059 4.7 1.88755 -0.0743567
20.6458 4.7 -1.88755 -0.0750666
20.6458 4.7 1.88755 -0.0750666
20.5857 4.7 -1.88755 -0.0757769
20.5857 4.7 1.88755 -0.0757769
20.5255 4.7 -1.88755 -0.0764876
20.5255 4.7 1.88755 -0.0764876
20.4654 4.7 -1.88755 -0.0771992
20.4654 4.7 1.88755 -0.0771992
20.4053 4.7 -1.88755 -0.0779121
20.4053 4.7 1.88755 -0.0779121
20.3452 4.7 -1.88755 -0.0786271
20.3452 4.7 1.88755 -0.0786271
20.2851 4.7 -1.88755 -0.0793452
20.2851 4.7 1.88755 -0.0793452
20.225 4.7 -1.88755 -0.0800671
20.225 4.7 1.88755 -0.0800671
20.1649 4.7 -1.88755 -0.0807927
20.1649 4.7 1.88755 -0.0807927
20.1049 4.7 -1.88755 -0.0815201
20.1049 4.7 1.88755 -0.0815201
20.0436 4.7 -1.88755 -0.0822539
20.0436 4.7 1.88755 -0.0822539
19.9809 4.7 -1.88755 -0.0830023
19.9809 4.7 1.88755 -0.0830023
19.9169 4.7 -1.88755 -0.0837669
19.9169 4.7 1.88755 -0.0837669
19.8516 4.7 -1.88755 -0.0845484
19.8516 4.7 1.88755 -0.0845484
19.7848 4.7 -1.88755 -0.085347
19.7848 4.7 1.88755 -0.085347
19.7165 4.7 -1.88755 -0.0861634
19.7165 4.7 1.88755 -0.0861634
19.6468 4.7 -1.88755 -0.0869982
19.6468 4.7 1.88755 -0.0869982
19.5755 4.7 -1.88755 -0.0878519
19.5755 4.7 1.88755 -0.0878519
19.5027 4.7 -1.88755 -0.0887249
19.5027 4.7 1.88755 -0.0887249
19.4284 4.7 -1.88755 -0.0896171
19.4284 4.7 1.88755 -0.0896171
19.3524 4.7 -1.88755 -0.0905292
19.3524 4.7 1.88755 -0.0905292
19.2747 4.7 -1.88755 -0.0914618
19.2747 4.7 1.88755 -0.0914618
19.1954 4.7 -1.88755 -0.0924149
19.1954 4.7 1.88755 -0.0924149
19.1144 4.7 -1.88755 -0.0933889
19.1144 4.7 1.88755 -0.0933889
19.0315 4.7 -1.88755 -0.0943842
19.0315 4.7 1.88755 -0.0943842
18.9469 4.7 -1.88755 -0.0954017
18.9469 4.7 1.88755 -0.0954017
18.8605 4.7 -1.88755 -0.0964418
18.8605 4.7 1.88755 -0.0964418
18.7722 4.7 -1.88755 -0.0975049
18.7722 4.7 1.88755 -0.0975049
18.6819 4.7 -1.88755 -0.0985916
18.6819 4.7 1.88755 -0.0985916
18.5898 4.7 -1.88755 -0.0997026
18.5898 4.7 1.88755 -0.0997026
18.4956 4.7 -1.88755 -0.100839
18.4956 4.7 1.88755 -0.100839
18.3993 4.7 -1.88755 -0.102001
18.3993 4.7 1.88755 -0.102001
18.301 4.7 -1.88755 -0.10319
18.301 4.7 1.88755 -0.10319
18.2005 4.7 -1.88755 -0.104406
18.2005 4.7 1.88755 -0.104406
18.0979 4.7 -1.88755 -0.10565
18.0979 4.7 1.88755 -0.10565
17.993 4.7 -1.88755 -0.106923
17.993 4.7 1.88755 -0.106923
17.8859 4.7 -1.88755 -0.108225
17.8859 4.7 1.88755 -0.108225
17.7764 4.7 -1.88755 -0.109559
17.7764 4.7 1.88755 -0.109559
17.6645 4.7 -1.88755 -0.110924
17.6645 4.7 1.88755 -0.110924
17.5502 4.7 -1.88755 -0.112322
17.5502 4.7 1.88755 -0.112322
17.4335 4.7 -1.88755 -0.113753
17.4335 4.7 1.88755 -0.113753
17.3142 4.7 -1.88755 -0.115219
17.3142 4.7 1.88755 -0.115219
17.1923 4.7 -1.88755 -0.11672
17.1923 4.7 1.88755 -0.11672
17.0678 4.7 -1.88755 -0.118258
17.0678 4.7 1.88755 -0.118258
16.9405 4.7 -1.88755 -0.119834
16.9405 4.7 1.88755 -0.119834
16.8105 4.7 -1.88755 -0.121448
16.8105 4.7 1.88755 -0.121448
16.6777 4.7 -1.88755 -0.123103
16.6777 4.7 1.88755 -0.123103
16.542 4.7 -1.88755 -0.124801
16.542 4.7 1.88755 -0.124801
16.4034 4.7 -1.88755 -0.126542
16.4034 4.7 1.88755 -0.126542
16.2617 4.7 -1.88755 -0.128329
16.2617 4.7 1.88755 -0.128329
16.117 4.7 -1.88755 -0.130161
16.117 4.7 1.88755 -0.130161
15.9691 4.7 -1.88755 -0.132038
15.9691 4.7 1.88755 -0.132038
15.818 4.7 -1.88755 -0.133964
15.818 4.7 1.88755 -0.133964
15.6636 4.7 -1.88755 -0.135941
15.6636 4.7 1.88755 -0.135941
15.5059 4.7 -1.88755 -0.137971
15.5059 4.7 1.88755 -0.137971
15.3448 4.7 -1.88755 -0.140056
15.3448 4.7 1.88755 -0.140056
15.1801 4.7 -1.88755 -0.142199
15.1801 4.7 1.88755 -0.142199
15.0119 4.7 -1.88755 -0.144402
15.0119 4.7 1.88755 -0.144402
14.84 4.7 -1.88755 -0.146668
14.84 4.7 1.88755 -0.146668
14.6644 4.7 -1.88755 -0.149001
14.6644 4.7 1.88755 -0.149001
14.485 4.7 -1.88755 -0.151403
14.485 4.7 1.88755 -0.151403
14.3017 4.7 -1.88755 -0.153877
14.3017 4.7 1.88755 -0.153877
14.1144 4.7 -1.88755 -0.156427
14.1144 4.7 1.88755 -0.156427
13.9231 4.7 -1.88755 -0.159058
13.9231 4.7 1.88755 -0.159058
13.7276 4.7 -1.88755 -0.161773
13.7276 4.7 1.88755 -0.161773
13.5278 4.7 -1.88755 -0.16458
13.5278 4.7 1.88755 -0.16458
13.3237 4.7 -1.88755 -0.167484
13.3237 4.7 1.88755 -0.167484
13.1152 4.7 -1.88755 -0.170492
13.1152 4.7 1.88755 -0.170492
12.9022 4.7 -1.88755 -0.17361
12.9022 4.7 1.88755 -0.17361
12.6845 4.7 -1.88755 -0.176845
12.6845 4.7 1.88755 -0.176845
12.4621 4.7 -1.88755 -0.180204
12.4621 4.7 1.88755 -0.180204
12.2349 4.7 -1.88755 -0.183695
12.2349 4.7 1.88755 -0.183695
12.0027 4.7 -1.88755 -0.187326
12.0027 4.7 1.88755 -0.187326
11.7655 4.7 -1.88755 -0.191108
11.7655 4.7 1.88755 -0.191108
11.5232 4.7 -1.88755 -0.195052
11.5232 4.7 1.88755 -0.195052
11.2755 4.7 -1.88755 -0.199169
11.2755 4.7 1.88755 -0.199169
11.0226 4.7 -1.88755 -0.203478
11.0226 4.7 1.88755 -0.203478
10.7641 4.7 -1.88755 -0.207997
10.7641 4.7 1.88755 -0.207997
10.5 4.7 -1.88755 -0.212748
10.5 4.7 1.88755 -0.212748
10.2359 4.7 -1.88755 -0.217705
10.2359 4.7 1.88755 -0.217705
9.97744 4.7 -1.88755 -0.222783
9.97744 4.7 1.88755 -0.222783
9.72445 4.7 -1.88755 -0.227944
9.72445 4.7 1.88755 -0.227944
9.47684 4.7 -1.88755 -0.233201
9.47684 4.7 1.88755 -0.233201
9.2345 4.7 -1.88755 -0.238566
9.2345 4.7 1.88755 -0.238566
8.9973 4.7 -1.88755 -0.244049
8.9973 4.7 1.88755 -0.244049
8.76514 4.7 -1.88755 -0.24966
8.76514 4.7 1.88755 -0.24966
8.53792 4.7 -1.88755 -0.255407
8.53792 4.7 1.88755 -0.255407
8.31552 4.7 -1.88755 -0.261293
8.31552 4.7 1.88755 -0.261293
8.09785 4.7 -1.88755 -0.267319
8.09785 4.7 1.88755 -0.267319
7.8848 4.7 -1.88755 -0.273487
7.8848 4.7 1.88755 -0.273487
7.67629 4.7 -1.88755 -0.279801
7.67629 4.7 1.88755 -0.279801
7.4722 4.7 -1.88755 -0.286265
7.4722 4.7 1.88755 -0.286265
7.27245 4.7 -1.88755 -0.292883
7.27245 4.7 1.88755 -0.292883
7.07694 4.7 -1.88755 -0.29967
7.07694 4.7 1.88755 -0.29967
6.88558 4.7 -1.88755 -0.30663
6.88558 4.7 1.88755 -0.30663
6.6983 4.7 -1.88755 -0.31377
6.6983 4.7 1.88755 -0.31377
6.51499 4.7 -1.88755 -0.321099
6.51499 4.7 1.88755 -0.321099
6.33558 4.7 -1.88755 -0.328621
6.33558 4.7 1.88755 -0.328621
6.15998 4.7 -1.88755 -0.336346
6.15998 4.7 1.88755 -0.336346
5.98811 4.7 -1.88755 -0.344279
5.98811 4.7 1.88755 -0.344279
5.81989 4.7 -1.88755 -0.352423
5.81989 4.7 1.88755 -0.352423
5.65525 4.7 -1.88755 -0.360786
5.65525 4.7 1.88755 -0.360786
5.4941 4.7 -1.88755 -0.36937
5.4941 4.7 1.88755 -0.36937
5.33638 4.7 -1.88755 -0.378182
5.33638 4.7 1.88755 -0.378182
5.18201 4.7 -1.88755 -0.387222
5.18201 4.7 1.88755 -0.387222
5.03092 4.7 -1.88755 -0.396494
5.03092 4.7 1.88755 -0.396494
4.88305 4.7 -1.88755 -0.406
4.88305 4.7 1.88755 -0.406
4.73831 4.7 -1.88755 -0.415746
4.73831 4.7 1.88755 -0.415746
4.59665 4.7 -1.88755 -0.425733
4.59665 4.7 1.88755 -0.425733
4.458 4.7 -1.88755 -0.43596
4.458 4.7 1.88755 -0.43596
4.32229 4.7 -1.88755 -0.446429
4.32229 4.7 1.88755 -0.446429
4.18947 4.7 -1.88755 -0.457141
4.18947 4.7 1.88755 -0.457141
4.05947 4.7 -1.88755 -0.468102
4.05947 4.7 1.88755 -0.468102
3.93223 4.7 -1.88755 -0.479309
3.93223 4.7 1.88755 -0.479309
3.8077 4.7 -1.88755 -0.490764
3.8077 4.7 1.88755 -0.490764
3.68581 4.7 -1.88755 -0.502466
3.68581 4.7 1.88755 -0.502466
3.56652 4.7 -1.88755 -0.514418
3.56652 4.7 1.88755 -0.514418
3.44975 4.7 -1.88755 -0.526622
3.44975 4.7 1.88755 -0.526622
3.33547 4.7 -1.88755 -0.539077
3.33547 4.7 1.88755 -0.539077
3.22362 4.7 -1.88755 -0.55178
3.22362 4.7 1.88755 -0.55178
3.11414 4.7 -1.88755 -0.56473
3.11414 4.7 1.88755 -0.56473
3.00699 4.7 -1.88755 -0.577929
3.00699 4.7 1.88755 -0.577929
2.90212 4.7 -1.88755 -0.591375
2.90212 4.7 1.88755 -0.591375
2.79947 4.7 -1.88755 -0.605066
2.79947 4.7 1.88755 -0.605066
2.69901 4.7 -1.88755 -0.618993
2.69901 4.7 1.88755 -0.618993
2.60068 4.7 -1.88755 -0.633156
2.60068 4.7 1.88755 -0.633156
2.50444 4.7 -1.88755 -0.647554
2.50444 4.7 1.88755 -0.647554
2.41024 4.7 -1.88755 -0.66218
2.41024 4.7 1.88755 -0.66218
2.31805 4.7 -1.88755 -0.677022
2.31805 4.7 1.88755 -0.677022
2.22782 4.7 -1.88755 -0.692072
2.22782 4.7 1.88755 -0.692072
2.1395 4.7 -1.88755 -0.707326
2.1395 4.7 1.88755 -0.707326
2.05306 4.7 -1.88755 -0.722773
2.05306 4.7 1.88755 -0.722773
1.96845 4.7 -1.88755 -0.738396
1.96845 4.7 1.88755 -0.738396
1.88565 4.7 -1.88755 -0.75418
1.88565 4.7 1.88755 -0.75418
1.8046 4.7 -1.88755 -0.770111
1.8046 4.7 1.88755 -0.770111
1.72528 4.7 -1.88755 -0.786175
1.72528 4.7 1.88755 -0.786175
1.64764 4.7 -1.88755 -0.80235
1.64764 4.7 1.88755 -0.80235
1.57165 4.7 -1.88755 -0.818612
1.57165 4.7 1.88755 -0.818612
1.49727 4.7 -1.88755 -0.834938
1.49727 4.7 1.88755 -0.834938
1.42448 4.7 -1.88755 -0.851305
1.42448 4.7 1.88755 -0.851305
1.35323 4.7 -1.88755 -0.867686
1.35323 4.7 1.88755 -0.867686
1.2835 4.7 -1.88755 -0.884051
1.2835 4.7 1.88755 -0.884051
1.21524 4.7 -1.88755 -0.900364
1.21524 4.7 1.88755 -0.900364
1.14844 4.7 -1.88755 -0.916597
1.14844 4.7 1.88755 -0.916597
1.08306 4.7 -1.88755 -0.932722
1.08306 4.7 1.88755 -0.932722
1.01907 4.7 -1.88755 -0.948702
1.01907 4.7 1.88755 -0.948702
0.956432 4.7 -1.88755 -0.964501
0.956432 4.7 1.88755 -0.964501
0.89513 4.7 -1.88755 -0.980089
0.89513 4.7 1.88755 -0.980089
0.83513 4.7 -1.88755 -0.995428
0.83513 4.7 1.88755 -0.995428
0.775018 4.7 -1.88755 -1.01067
0.775018 4.7 1.88755 -1.01067
0.714907 4.7 -1.88755 -1.02597
0.714907 4.7 1.88755 -1.02597
0.654795 4.7 -1.88755 -1.04125
0.654795 4.7 1.88755 -1.04125
0.594684 4.7 -1.88755 -1.05647
0.594684 4.7 1.88755 -1.05647
0.534572 4.7 -1.88755 -1.07159
0.534572 4.7 1.88755 -1.07159
0.47446 4.7 -1.88755 -1.08657
0.47446 4.7 1.88755 -1.08657
0.414349 4.7 -1.88755 -1.10135
0.414349 4.7 1.88755 -1.10135
0.354237 4.7 -1.88755 -1.11589
0.354237 4.7 1.88755 -1.11589
0.294126 4.7 -1.88755 -1.13013
0.294126 4.7 1.88755 -1.13013
0.234014 4.7 -1.88755 -1.14404
0.234014 4.7 1.88755 -1.14404
0.173903 4.7 -1.88755 -1.15757
0.173903 4.7 1.88755 -1.15757
0.113791 4.7 -1.88755 -1.17067
0.113791 4.7 1.88755 -1.17067
0.0536798 4.7 -1.88755 -1.1833
0.0536798 4.7 1.88755 -1.1833
-0.00643172 4.7 -1.88755 -1.19543
-0.00643172 4.7 1.88755 -1.19543
-0.0665432 4.7 -1.88755 -1.20702
-0.0665432 4.7 1.88755 -1.20702
-0.126655 4.7 -1.88755 -1.21803
-0.126655 4.7 1.88755 -1.21803
-0.186766 4.7 -1.88755 -1.22843
-0.186766 4.7 1.88755 -1.22843
-0.246878 4.7 -1.88755 -1.23821
-0.246878 4.7 1.88755 -1.23821
-0.306989 4.7 -1.88755 -1.24736
-0.306989 4.7 1.88755 -1.24736
-0.367101 4.7 -1.88755 -1.25585
-0.367101 4.7 1.88755 -1.25585
-0.427212 4.7 -1.88755 -1.26368
-0.427212 4.7 1.88755 -1.26368
-0.487324 4.7 -1.88755 -1.27085
-0.487324 4.7 1.88755 -1.27085
-0.547435 4.7 -1.88755 -1.27736
-0.547435 4.7 1.88755 -1.27736
-0.607547 4.7 -1.88755 -1.28324
-0.607547 4.7 1.88755 -1.28324
-0.667658 4.7 -1.88755 -1.2885
-0.667658 4.7 1.88755 -1.2885
-0.72777 4.7 -1.88755 -1.29316
-0.72777 4.7 1.88755 -1.29316
-0.787882 4.7 -1.88755 -1.29725
-0.787882 4.7 1.88755 -1.29725
-0.847993 4.7 -1.88755 -1.30083
-0.847993 4.7 1.88755 -1.30083
-0.907993 4.7 -1.88755 -1.30391
-0.907993 4.7 1.88755 -1.30391
-0.970739 4.7 -1.88755 -1.30655
-0.970739 4.7 1.88755 -1.30655
-1.03636 4.7 -1.88755 -1.30885
-1.03636 4.7 1.88755 -1.30885
-1.10498 4.7 -1.88755 -1.31077
-1.10498 4.7 1.88755 -1.31077
-1.17674 4.7 -1.88755 -1.31233
-1.17674 4.7 1.88755 -1.31233
-1.25179 4.7 -1.88755 -1.3135
-1.25179 4.7 1.88755 -1.3135
-1.33028 4.7 -1.88755 -1.31431
-1.33028 4.7 1.88755 -1.31431
-1.41235 4.7 -1.88755 -1.31476
-1.41235 4.7 1.88755 -1.31476
-1.49818 4.7 -1.88755 -1.31487
-1.49818 4.7 1.88755 -1.31487
-1.58795 4.7 -1.88755 -1.31465
-1.58795 4.7 1.88755 -1.31465
-1.68182 4.7 -1.88755 -1.31413
-1.68182 4.7 1.88755 -1.31413
-1.77998 4.7 -1.88755 -1.31332
-1.77998 4.7 1.88755 -1.31332
-1.88265 4.7 -1.88755 -1.31225
-1.88265 4.7 1.88755 -1.31225
-1.99001 4.7 -1.88755 -1.31095
-1.99001 4.7 1.88755 -1.31095
-2.10228 4.7 -1.88755 -1.30942
-2.10228 4.7 1.88755 -1.30942
-2.2197 4.7 -1.88755 -1.30769
-2.2197 4.7 1.88755 -1.30769
-2.34248 4.7 -1.88755 -1.30577
-2.34248 4.7 1.88755 -1.30577
-2.47089 4.7 -1.88755 -1.30367
-2.47089 4.7 1.88755 -1.30367
-2.60518 4.7 -1.88755 -1.3014
-2.60518 4.7 1.88755 -1.3014
-2.74561 4.7 -1.88755 -1.29898
-2.74561 4.7 1.88755 -1.29898
-2.89248 4.7 -1.88755 -1.2964
-2.89248 4.7 1.88755 -1.2964
-3.04606 4.7 -1.88755 -1.29367
-3.04606 4.7 1.88755 -1.29367
-3.20668 4.7 -1.88755 -1.29079
-3.20668 4.7 1.88755 -1.29079
-3.37464 4.7 -1.88755 -1.28776
-3.37464 4.7 1.88755 -1.28776
-3.5503 4.7 -1.88755 -1.28458
-3.5503 4.7 1.88755 -1.28458
-3.73399 4.7 -1.88755 -1.28125
-3.73399 4.7 1.88755 -1.28125
-3.9261 4.7 -1.88755 -1.27777
-3.9261 4.7 1.88755 -1.27777
-4.127 4.7 -1.88755 -1.27412
-4.127 4.7 1.88755 -1.27412
-4.33709 4.7 -1.88755 -1.27029
-4.33709 4.7 1.88755 -1.27029
-4.5568 4.7 -1.88755 -1.26629
-4.5568 4.7 1.88755 -1.26629
-4.77651 4.7 -1.88755 -1.2622
-4.77651 4.7 1.88755 -1.2622
-4.99551 4.7 -1.88755 -1.25813
-4.99551 4.7 1.88755 -1.25813
-5.21381 4.7 -1.88755 -1.25406
-5.21381 4.7 1.88755 -1.25406
-5.43139 4.7 -1.88755 -1.25001
-5.43139 4.7 1.88755 -1.25001
-5.64827 4.7 -1.88755 -1.24597
-5.64827 4.7 1.88755 -1.24597
-5.86445 4.7 -1.88755 -1.24195
-5.86445 4.7 1.88755 -1.24195
-6.07993 4.7 -1.88755 -1.23794
-6.07993 4.7 1.88755 -1.23794
-6.29471 4.7 -1.88755 -1.23395
-6.29471 4.7 1.88755 -1.23395
-6.5088 4.7 -1.88755 -1.22997
-6.5088 4.7 1.88755 -1.22997
-6.72219 4.7 -1.88755 -1.226
-6.72219 4.7 1.88755 -1.226
-6.9349 4.7 -1.88755 -1.22205
-6.9349 4.7 1.88755 -1.22205
-7.14691 4.7 -1.88755 -1.21811
-7.14691 4.7 1.88755 -1.21811
-7.35824 4.7 -1.88755 -1.21419
-7.35824 4.7 1.88755 -1.21419
-7.56889 4.7 -1.88755 -1.21029
-7.56889 4.7 1.88755 -1.21029
-7.77885 4.7 -1.88755 -1.2064
-7.77885 4.7 1.88755 -1.2064
-7.98813 4.7 -1.88755 -1.20253
-7.98813 4.7 1.88755 -1.20253
-8.19674 4.7 -1.88755 -1.19867
-8.19674 4.7 1.88755 -1.19867
-8.40467 4.7 -1.88755 -1.19483
-8.40467 4.7 1.88755 -1.19483
-8.61193 4.7 -1.88755 -1.191
-8.61193 4.7 1.88755 -1.191
-8.81852 4.7 -1.88755 -1.18719
-8.81852 4.7 1.88755 -1.18719
-9.02444 4.7 -1.88755 -1.18339
-9.02444 4.7 1.88755 -1.18339
-9.2297 4.7 -1.88755 -1.1796
-9.2297 4.7 1.88755 -1.1796
-9.43428 4.7 -1.88755 -1.17583
-9.43428 4.7 1.88755 -1.17583
-9.63821 4.7 -1.88755 -1.17207
-9.63821 4.7 1.88755 -1.17207
-9.84148 4.7 -1.88755 -1.16832
-9.84148 4.7 1.88755 -1.16832
-10.0441 4.7 -1.88755 -1.16458
-10.0441 4.7 1.88755 -1.16458
-10.246 4.7 -1.88755 -1.16085
-10.246 4.7 1.88755 -1.16085
-10.4473 4.7 -1.88755 -1.15714
-10.4473 4.7 1.88755 -1.15714
-10.648 4.7 -1.88755 -1.15344
-10.648 4.7 1.88755 -1.15344
-10.848 4.7 1.88755 -1.14965
-10.848 4.7 -1.88755 -1.14965
-60.848 4.7 1.88755 -0.232037
-59.848 4.7 1.88755 -0.232037
-59.848 4.7 -1.88755 -0.232037
-60.848 4.7 -1.88755 -0.232037
-58.8506 4.7 1.88755 -0.25036
-58.8506 4.7 -1.88755 -0.25036
-57.8559 4.7 1.88755 -0.268664
-57.8559 4.7 -1.88755 -0.268664
-56.8639 4.7 1.88755 -0.286949
-56.8639 4.7 -1.88755 -0.286949
-55.8744 4.7 1.88755 -0.305213
-55.8744 4.7 -1.88755 -0.305213
-54.8876 4.7 1.88755 -0.323451
-54.8876 4.7 -1.88755 -0.323451
-53.9034 4.7 1.88755 -0.341661
-53.9034 4.7 -1.88755 -0.341661
-52.9218 4.7 1.88755 -0.35984
-52.9218 4.7 -1.88755 -0.35984
-51.9429 4.7 1.88755 -0.377986
-51.9429 4.7 -1.88755 -0.377986
-50.9665 4.7 1.88755 -0.396095
-50.9665 4.7 -1.88755 -0.396095
-49.9927 4.7 1.88755 -0.414166
-49.9927 4.7 -1.88755 -0.414166
-49.0215 4.7 1.88755 -0.432196
-49.0215 4.7 -1.88755 -0.432196
-48.0528 4.7 1.88755 -0.450183
-48.0528 4.7 -1.88755 -0.450183
-47.0867 4.7 1.88755 -0.468126
-47.0867 4.7 -1.88755 -0.468126
-46.1232 4.7 1.88755 -0.486024
-46.1232 4.7 -1.88755 -0.486024
-45.1622 4.7 1.88755 -0.503874
-45.1622 4.7 -1.88755 -0.503874
-44.2038 4.7 1.88755 -0.521674
-44.2038 4.7 -1.88755 -0.521674
-43.248 4.7 1.88755 -0.539423
-43.248 4.7 -1.88755 -0.539423
-42.2946 4.7 1.88755 -0.557121
-42.2946 4.7 -1.88755 -0.557121
-41.3438 4.7 1.88755 -0.574769
-41.3438 4.7 -1.88755 -0.574769
-40.3955 4.7 1.88755 -0.592367
-40.3955 4.7 -1.88755 -0.592367
-39.4497 4.7 1.88755 -0.609916
-39.4497 4.7 -1.88755 -0.609916
-38.5065 4.7 1.88755 -0.627415
-38.5065 4.7 -1.88755 -0.627415
-37.5657 4.7 1.88755 -0.644866
-37.5657 4.7 -1.88755 -0.644866
-36.6274 4.7 1.88755 -0.662268
-36.6274 4.7 -1.88755 -0.662268
-35.6916 4.7 1.88755 -0.679621
-35.6916 4.7 -1.88755 -0.679621
-34.7583 4.7 1.88755 -0.696928
-34.7583 4.7 -1.88755 -0.696928
-33.8275 4.7 1.88755 -0.714185
-33.8275 4.7 -1.88755 -0.714185
-32.8991 4.7 1.88755 -0.731395
-32.8991 4.7 -1.88755 -0.731395
-31.9732 4.7 1.88755 -0.748559
-31.9732 4.7 -1.88755 -0.748559
-31.0498 4.7 1.88755 -0.765674
-31.0498 4.7 -1.88755 -0.765674
-30.1288 4.7 1.88755 -0.782743
-30.1288 4.7 -1.88755 -0.782743
-29.2102 4.7 1.88755 -0.799764
-29.2102 4.7 -1.88755 -0.799764
-28.2941 4.7 1.88755 -0.816742
-28.2941 4.7 -1.88755 -0.816742
-27.3804 4.7 1.88755 -0.833674
-27.3804 4.7 -1.88755 -0.833674
-26.4667 4.7 1.88755 -0.85058
-26.4667 4.7 -1.88755 -0.85058
-25.5929 4.7 1.88755 -0.867118
-25.5929 4.7 -1.88755 -0.867118
-24.7573 4.7 1.88755 -0.882934
-24.7573 4.7 -1.88755 -0.882934
-23.9582 4.7 1.88755 -0.898058
-23.9582 4.7 -1.88755 -0.898058
-23.1941 4.7 1.88755 -0.91252
-23.1941 4.7 -1.88755 -0.91252
-22.4633 4.7 1.88755 -0.92635
-22.4633 4.7 -1.88755 -0.92635
-21.7645 4.7 1.88755 -0.939575
-21.7645 4.7 -1.88755 -0.939575
-21.0962 4.7 1.88755 -0.95222
-21.0962 4.7 -1.88755 -0.95222
-20.4571 4.7 1.88755 -0.964314
-20.4571 4.7 -1.88755 -0.964314
-19.8459 4.7 1.88755 -0.97588
-19.8459 4.7 -1.88755 -0.97588
-19.2615 4.7 1.88755 -0.986939
-19.2615 4.7 -1.88755 -0.986939
-18.7026 4.7 1.88755 -0.997514
-18.7026 4.7 -1.88755 -0.997514
-18.1681 4.7 1.88755 -1.00763
-18.1681 4.7 -1.88755 -1.00763
-17.6569 4.7 1.88755 -1.0173
-17.6569 4.7 -1.88755 -1.0173
-17.1681 4.7 1.88755 -1.02654
-17.1681 4.7 -1.88755 -1.02654
-16.7007 4.7 1.88755 -1.03539
-16.7007 4.7 -1.88755 -1.03539
-16.2537 4.7 1.88755 -1.04384
-16.2537 4.7 -1.88755 -1.04384
-15.8262 4.7 1.88755 -1.05192
-15.8262 4.7 -1.88755 -1.05192
-15.4174 4.7 1.88755 -1.05966
-15.4174 4.7 -1.88755 -1.05966
-15.0265 4.7 1.88755 -1.06705
-15.0265 4.7 -1.88755 -1.06705
-14.6526 4.7 1.88755 -1.07412
-14.6526 4.7 -1.88755 -1.07412
-14.2951 4.7 1.88755 -1.08088
-14.2951 4.7 -1.88755 -1.08088
-13.9532 4.7 1.88755 -1.08734
-13.9532 4.7 -1.88755 -1.08734
-13.6263 4.7 1.88755 -1.09353
-13.6263 4.7 -1.88755 -1.09353
-13.3136 4.7 1.88755 -1.09944
-13.3136 4.7 -1.88755 -1.09944
-13.0146 4.7 1.88755 -1.10509
-13.0146 4.7 -1.88755 -1.10509
-12.7287 4.7 1.88755 -1.1105
-12.7287 4.7 -1.88755 -1.1105
-12.4552 4.7 1.88755 -1.11567
-12.4552 4.7 -1.88755 -1.11567
-12.1937 4.7 1.88755 -1.12061
-12.1937 4.7 -1.88755 -1.12061
-11.9437 4.7 1.88755 -1.12533
-11.9437 4.7 -1.88755 -1.12533
-11.7045 4.7 1.88755 -1.12985
-11.7045 4.7 -1.88755 -1.12985
-11.4758 4.7 1.88755 -1.13417
-11.4758 4.7 -1.88755 -1.13417
-11.2571 4.7 1.88755 -1.13831
-11.2571 4.7 -1.88755 -1.13831
-11.048 4.7 1.88755 -1.14224
-11.048 4.7 -1.88755 -1.14224
-110.848 4.7 1.88755 0.816278
-109.848 4.7 1.88755 0.816278
-109.848 4.7 -1.88755 0.816278
-110.848 4.7 -1.88755 0.816278
-108.848 4.7 1.88755 0.661492
-108.848 4.7 -1.88755 0.661492
-107.848 4.7 1.88755 0.680187
-107.848 4.7 -1.88755 0.680187
-106.848 4.7 1.88755 0.652471
-106.848 4.7 -1.88755 0.652471
-105.848 4.7 1.88755 0.625914
-105.848 4.7 -1.88755 0.625914
-104.848 4.7 1.88755 0.604079
-104.848 4.7 -1.88755 0.604079
-103.848 4.7 1.88755 0.581474
-103.848 4.7 -1.88755 0.581474
-102.848 4.7 1.88755 0.559637
-102.848 4.7 -1.88755 0.559637
-101.848 4.7 1.88755 0.538503
-101.848 4.7 -1.88755 0.538503
-100.848 4.7 1.88755 0.517762
-100.848 4.7 -1.88755 0.517762
-99.848 4.7 1.88755 0.497421
-99.848 4.7 -1.88755 0.497421
-98.848 4.7 1.88755 0.477427
-98.848 4.7 -1.88755 0.477427
-97.848 4.7 1.88755 0.457722
-97.848 4.7 -1.88755 0.457722
-96.848 4.7 1.88755 0.438277
-96.848 4.7 -1.88755 0.438277
-95.848 4.7 1.88755 0.419057
-95.848 4.7 -1.88755 0.419057
-94.848 4.7 1.88755 0.400038
-94.848 4.7 -1.88755 0.400038
-93.848 4.7 1.88755 0.381196
-93.848 4.7 -1.88755 0.381196
-92.848 4.7 1.88755 0.362512
-92.848 4.7 -1.88755 0.362512
-91.848 4.7 1.88755 0.343966
-91.848 4.7 -1.88755 0.343966
-90.848 4.7 1.88755 0.325544
-90.848 4.7 -1.88755 0.325544
-89.848 4.7 1.88755 0.30723
-89.848 4.7 -1.88755 0.30723
-88.848 4.7 1.88755 0.289012
-88.848 4.7 -1.88755 0.289012
-87.848 4.7 1.88755 0.270878
-87.848 4.7 -1.88755 0.270878
-86.848 4.7 1.88755 0.252819
-86.848 4.7 -1.88755 0.252819
-85.848 4.7 1.88755 0.234825
-85.848 4.7 -1.88755 0.234825
-84.848 4.7 1.88755 0.216887
-84.848 4.7 -1.88755 0.216887
-83.848 4.7 1.88755 0.198995
-83.848 4.7 -1.88755 0.198995
-82.848 4.7 1.88755 0.181142
-82.848 4.7 -1.88755 0.181142
-81.848 4.7 1.88755 0.163319
-81.848 4.7 -1.88755 0.163319
-80.848 4.7 1.88755 0.145518
-80.848 4.7 -1.88755 0.145518
-79.848 4.7 1.88755 0.127732
-79.848 4.7 -1.88755 0.127732
-78.848 4.7 1.88755 0.109954
-78.848 4.7 -1.88755 0.109954
-77.848 4.7 1.88755 0.0921782
-77.848 4.7 -1.88755 0.0921782
-76.848 4.7 1.88755 0.0743979
-76.848 4.7 -1.88755 0.0743979
-75.848 4.7 1.88755 0.0566067
-75.848 4.7 -1.88755 0.0566067
-74.848 4.7 1.88755 0.0388006
-74.848 4.7 -1.88755 0.0388006
-73.848 4.7 1.88755 0.0209744
-73.848 4.7 -1.88755 0.0209744
-72.848 4.7 1.88755 0.00312404
-72.848 4.7 -1.88755 0.00312404
-71.848 4.7 1.88755 -0.0147532
-71.848 4.7 -1.88755 -0.0147532