# wallShearStress  POINT_DATA 994
# x y z  wallShearStress_x wallShearStress_y wallShearStress_z
76.848 3.84014e-15 1.88755 -0.000412038 6.57544e-09 0
76.848 3.84014e-15 -1.88755 -0.000412038 6.57544e-09 0
77.848 3.89022e-15 -1.88755 -0.000412038 6.57544e-09 0
77.848 3.89022e-15 1.88755 -0.000412038 6.57544e-09 0
75.8596 3.79065e-15 1.88755 -0.000411871 -6.50538e-09 0
75.8596 3.79065e-15 -1.88755 -0.000411871 -6.50538e-09 0
74.8826 3.74172e-15 1.88755 -0.000413077 -1.37839e-09 -4.85437e-27
74.8826 3.74172e-15 -1.88755 -0.000413077 -1.37839e-09 -4.85437e-27
73.9169 3.69337e-15 1.88755 -0.00041325 -2.86852e-09 6.68063e-27
73.9169 3.69337e-15 -1.88755 -0.00041325 -2.86852e-09 6.68063e-27
72.9624 3.64557e-15 1.88755 -0.000413934 -2.60746e-09 8.69079e-27
72.9624 3.64557e-15 -1.88755 -0.000413934 -2.60746e-09 8.69079e-27
72.019 3.59833e-15 1.88755 -0.000414447 -2.80586e-09 1.06574e-26
72.019 3.59833e-15 -1.88755 -0.000414447 -2.80586e-09 1.06574e-26
71.0865 3.55163e-15 1.88755 -0.000415023 -3.00029e-09 0
71.0865 3.55163e-15 -1.88755 -0.000415023 -3.00029e-09 0
70.1648 3.50547e-15 1.88755 -0.000415675 -3.31072e-09 0
70.1648 3.50547e-15 -1.88755 -0.000415675 -3.31072e-09 0
69.2537 3.45985e-15 1.88755 -0.000416338 -3.97692e-09 5.20983e-45
69.2537 3.45985e-15 -1.88755 -0.000416338 -3.97692e-09 5.20983e-45
68.3532 3.41476e-15 1.88755 -0.000417219 -4.33639e-09 3.77421e-26
68.3532 3.41476e-15 -1.88755 -0.000417219 -4.33639e-09 3.77421e-26
67.4632 3.37019e-15 1.88755 -0.000418006 -4.37844e-09 -6.11085e-37
67.4632 3.37019e-15 -1.88755 -0.000418006 -4.37844e-09 -6.11085e-37
66.5834 3.32613e-15 1.88755 -0.000418888 -4.47553e-09 1.2446e-60
66.5834 3.32613e-15 -1.88755 -0.000418888 -4.47553e-09 1.2446e-60
65.7138 3.28259e-15 1.88755 -0.00041971 -5.11323e-09 -5.06613e-26
65.7138 3.28259e-15 -1.88755 -0.00041971 -5.11323e-09 -5.06613e-26
64.8543 3.23955e-15 1.88755 -0.000420802 -5.72467e-09 0
64.8543 3.23955e-15 -1.88755 -0.000420802 -5.72467e-09 0
64.0048 3.19701e-15 1.88755 -0.000421828 -5.90664e-09 5.95432e-26
64.0048 3.19701e-15 -1.88755 -0.000421828 -5.90664e-09 5.95432e-26
63.1651 3.15496e-15 1.88755 -0.000422944 -5.61291e-09 6.40599e-26
63.1651 3.15496e-15 -1.88755 -0.000422944 -5.61291e-09 6.40599e-26
62.3351 3.11339e-15 1.88755 -0.000423846 -5.37843e-09 6.86146e-26
62.3351 3.11339e-15 -1.88755 -0.000423846 -5.37843e-09 6.86146e-26
61.5147 3.07231e-15 1.88755 -0.000424847 -5.58133e-09 1.2446e-60
61.5147 3.07231e-15 -1.88755 -0.000424847 -5.58133e-09 1.2446e-60
60.7038 3.03171e-15 1.88755 -0.000425813 -5.90987e-09 9.79128e-48
60.7038 3.03171e-15 -1.88755 -0.000425813 -5.90987e-09 9.79128e-48
59.9024 2.99157e-15 1.88755 -0.000426901 -5.93384e-09 0
59.9024 2.99157e-15 -1.88755 -0.000426901 -5.93384e-09 0
59.1102 2.9519e-15 1.88755 -0.000427842 -5.47046e-09 1.27386e-36
59.1102 2.9519e-15 -1.88755 -0.000427842 -5.47046e-09 1.27386e-36
58.3271 2.91269e-15 1.88755 -0.000428744 -5.14917e-09 -9.24221e-26
58.3271 2.91269e-15 -1.88755 -0.000428744 -5.14917e-09 -9.24221e-26
57.5532 2.87393e-15 1.88755 -0.000429589 -4.91637e-09 0
57.5532 2.87393e-15 -1.88755 -0.000429589 -4.91637e-09 0
56.7882 2.83562e-15 1.88755 -0.00043039 -4.27977e-09 1.45724e-47
56.7882 2.83562e-15 -1.88755 -0.00043039 -4.27977e-09 1.45724e-47
56.032 2.79776e-15 1.88755 -0.000430992 -4.21241e-09 1.56232e-36
56.032 2.79776e-15 -1.88755 -0.000430992 -4.21241e-09 1.56232e-36
55.2846 2.76033e-15 1.88755 -0.000431705 -3.97188e-09 1.12446e-25
55.2846 2.76033e-15 -1.88755 -0.000431705 -3.97188e-09 1.12446e-25
54.5459 2.72334e-15 1.88755 -0.000432265 -4.18561e-09 -1.1758e-25
54.5459 2.72334e-15 -1.88755 -0.000432265 -4.18561e-09 -1.1758e-25
53.8157 2.68678e-15 1.88755 -0.000433045 -4.60461e-09 0
53.8157 2.68678e-15 -1.88755 -0.000433045 -4.60461e-09 0
53.094 2.65063e-15 1.88755 -0.000433742 -4.04074e-09 -1.2794e-25
53.094 2.65063e-15 -1.88755 -0.000433742 -4.04074e-09 -1.2794e-25
52.3806 2.61491e-15 1.88755 -0.000434322 -4.18672e-09 2.21452e-44
52.3806 2.61491e-15 -1.88755 -0.000434322 -4.18672e-09 2.21452e-44
51.6755 2.5796e-15 1.88755 -0.000435058 -4.09389e-09 -4.97841e-60
51.6755 2.5796e-15 -1.88755 -0.000435058 -4.09389e-09 -4.97841e-60
50.9785 2.5447e-15 1.88755 -0.000435639 -4.54176e-09 -1.43644e-25
50.9785 2.5447e-15 -1.88755 -0.000435639 -4.54176e-09 -1.43644e-25
50.2897 2.51021e-15 1.88755 -0.000436533 -6.68738e-09 -1.48885e-25
50.2897 2.51021e-15 -1.88755 -0.000436533 -6.68738e-09 -1.48885e-25
49.6088 2.47611e-15 1.88755 -0.00043766 -8.34373e-09 1.54167e-25
49.6088 2.47611e-15 -1.88755 -0.00043766 -8.34373e-09 1.54167e-25
48.9358 2.44241e-15 1.88755 -0.000438991 -9.10356e-09 -1.59447e-25
48.9358 2.44241e-15 -1.88755 -0.000438991 -9.10356e-09 -1.59447e-25
48.2705 2.4091e-15 1.88755 -0.000440281 -1.00351e-08 2.95974e-44
48.2705 2.4091e-15 -1.88755 -0.000440281 -1.00351e-08 2.95974e-44
47.613 2.37617e-15 1.88755 -0.000441899 -1.23007e-08 0
47.613 2.37617e-15 -1.88755 -0.000441899 -1.23007e-08 0
46.9631 2.34362e-15 1.88755 -0.000443838 -1.64461e-08 0
46.9631 2.34362e-15 -1.88755 -0.000443838 -1.64461e-08 0
46.3207 2.31146e-15 1.88755 -0.00044649 -2.08733e-08 -1.80399e-25
46.3207 2.31146e-15 -1.88755 -0.00044649 -2.08733e-08 -1.80399e-25
45.6858 2.27966e-15 1.88755 -0.000449522 -2.20164e-08 -2.43967e-45
45.6858 2.27966e-15 -1.88755 -0.000449522 -2.20164e-08 -2.43967e-45
45.0582 2.24823e-15 1.88755 -0.000452481 -2.25026e-08 -1.9073e-25
45.0582 2.24823e-15 -1.88755 -0.000452481 -2.25026e-08 -1.9073e-25
44.4379 2.21717e-15 1.88755 -0.00045558 -2.34952e-08 1.42401e-36
44.4379 2.21717e-15 -1.88755 -0.00045558 -2.34952e-08 1.42401e-36
43.8248 2.18647e-15 1.88755 -0.000458754 -2.46963e-08 -2.00492e-25
43.8248 2.18647e-15 -1.88755 -0.000458754 -2.46963e-08 -2.00492e-25
43.2187 2.15612e-15 1.88755 -0.000461951 -2.6089e-08 2.05194e-25
43.2187 2.15612e-15 -1.88755 -0.000461951 -2.6089e-08 2.05194e-25
42.6197 2.12612e-15 1.88755 -0.000465449 -2.87866e-08 -1.52623e-36
42.6197 2.12612e-15 -1.88755 -0.000465449 -2.87866e-08 -1.52623e-36
42.0276 2.09647e-15 1.88755 -0.000469352 -3.42323e-08 7.24454e-71
42.0276 2.09647e-15 -1.88755 -0.000469352 -3.42323e-08 7.24454e-71
41.4424 2.06717e-15 1.88755 -0.000473704 -3.63918e-08 -4.4532e-47
41.4424 2.06717e-15 -1.88755 -0.000473704 -3.63918e-08 -4.4532e-47
40.8639 2.0382e-15 1.88755 -0.000477819 -3.26191e-08 0
40.8639 2.0382e-15 -1.88755 -0.000477819 -3.26191e-08 0
40.2922 2.00957e-15 1.88755 -0.00048138 -3.32748e-08 -2.26056e-25
40.2922 2.00957e-15 -1.88755 -0.00048138 -3.32748e-08 -2.26056e-25
39.727 1.98127e-15 1.88755 -0.000485157 -3.31256e-08 1.14701e-25
39.727 1.98127e-15 -1.88755 -0.000485157 -3.31256e-08 1.14701e-25
39.1685 1.9533e-15 1.88755 -0.000488396 -3.23068e-08 0
39.1685 1.9533e-15 -1.88755 -0.000488396 -3.23068e-08 0
38.6163 1.92565e-15 1.88755 -0.000491466 -3.097e-08 -1.17397e-25
38.6163 1.92565e-15 -1.88755 -0.000491466 -3.097e-08 -1.17397e-25
38.0706 1.89832e-15 1.88755 -0.000493857 -2.78218e-08 1.18419e-25
38.0706 1.89832e-15 -1.88755 -0.000493857 -2.78218e-08 1.18419e-25
37.5312 1.87131e-15 1.88755 -0.000495693 -2.47315e-08 1.1914e-25
37.5312 1.87131e-15 -1.88755 -0.000495693 -2.47315e-08 1.1914e-25
36.998 1.84461e-15 1.88755 -0.000496797 -2.29609e-08 1.73917e-36
36.998 1.84461e-15 -1.88755 -0.000496797 -2.29609e-08 1.73917e-36
36.4711 1.81822e-15 1.88755 -0.000497487 -2.17501e-08 0
36.4711 1.81822e-15 -1.88755 -0.000497487 -2.17501e-08 0
35.9502 1.79214e-15 1.88755 -0.000497821 -2.67666e-08 0
35.9502 1.79214e-15 -1.88755 -0.000497821 -2.67666e-08 0
35.4353 1.76636e-15 1.88755 -0.000497863 -2.4744e-08 1.18259e-25
35.4353 1.76636e-15 -1.88755 -0.000497863 -2.4744e-08 1.18259e-25
34.9264 1.74087e-15 1.88755 -0.000496937 -2.14269e-08 0
34.9264 1.74087e-15 -1.88755 -0.000496937 -2.14269e-08 0
34.4234 1.71568e-15 1.88755 -0.00049482 -2.07553e-08 8.37949e-37
34.4234 1.71568e-15 -1.88755 -0.00049482 -2.07553e-08 8.37949e-37
33.9204 1.6905e-15 1.88755 -0.000492069 -1.90957e-08 8.10324e-37
33.9204 1.6905e-15 -1.88755 -0.000492069 -1.90957e-08 8.10324e-37
33.4352 1.6662e-15 1.88755 -0.000487723 -1.80948e-08 2.47065e-47
33.4352 1.6662e-15 -1.88755 -0.000487723 -1.80948e-08 2.47065e-47
32.9672 1.64276e-15 1.88755 -0.000482639 -1.56979e-08 3.62227e-71
32.9672 1.64276e-15 -1.88755 -0.000482639 -1.56979e-08 3.62227e-71
32.5157 1.62016e-15 1.88755 -0.000475891 -1.45993e-08 -7.77964e-37
32.5157 1.62016e-15 -1.88755 -0.000475891 -1.45993e-08 -7.77964e-37
32.0803 1.59835e-15 1.88755 -0.000468198 -1.23173e-08 -1.0345e-25
32.0803 1.59835e-15 -1.88755 -0.000468198 -1.23173e-08 -1.0345e-25
31.6602 1.57731e-15 1.88755 -0.000458839 -1.11157e-08 -7.17949e-37
31.6602 1.57731e-15 -1.88755 -0.000458839 -1.11157e-08 -7.17949e-37
31.255 1.55702e-15 1.88755 -0.000448324 -8.95084e-09 9.25572e-26
31.255 1.55702e-15 -1.88755 -0.000448324 -8.95084e-09 9.25572e-26
30.8642 1.53745e-15 1.88755 -0.000436232 -6.9448e-09 -2.85658e-44
30.8642 1.53745e-15 -1.88755 -0.000436232 -6.9448e-09 -2.85658e-44
30.4871 1.51857e-15 1.88755 -0.000422688 -4.6685e-09 -5.47493e-37
30.4871 1.51857e-15 -1.88755 -0.000422688 -4.6685e-09 -5.47493e-37
30.1235 1.50036e-15 1.88755 -0.000407593 -1.69321e-09 1.39423e-47
30.1235 1.50036e-15 -1.88755 -0.000407593 -1.69321e-09 1.39423e-47
29.7727 1.48279e-15 1.88755 -0.000390981 6.39978e-11 5.94212e-45
29.7727 1.48279e-15 -1.88755 -0.000390981 6.39978e-11 5.94212e-45
29.4343 1.46585e-15 1.88755 -0.000372903 3.04575e-09 1.66921e-26
29.4343 1.46585e-15 -1.88755 -0.000372903 3.04575e-09 1.66921e-26
29.1079 1.4495e-15 1.88755 -0.000353329 4.87413e-09 0
29.1079 1.4495e-15 -1.88755 -0.000353329 4.87413e-09 0
28.793 1.43374e-15 1.88755 -0.000332343 8.36821e-09 -2.96571e-38
28.793 1.43374e-15 -1.88755 -0.000332343 8.36821e-09 -2.96571e-38
28.4893 1.41853e-15 1.88755 -0.000309963 1.1009e-08 1.6968e-26
28.4893 1.41853e-15 -1.88755 -0.000309963 1.1009e-08 1.6968e-26
28.1964 1.40386e-15 1.88755 -0.000286154 1.44396e-08 -2.30751e-37
28.1964 1.40386e-15 -1.88755 -0.000286154 1.44396e-08 -2.30751e-37
27.9138 1.38971e-15 1.88755 -0.000261282 1.53122e-08 0
27.9138 1.38971e-15 -1.88755 -0.000261282 1.53122e-08 0
27.6412 1.37606e-15 1.88755 -0.000235211 1.96491e-08 6.7487e-26
27.6412 1.37606e-15 -1.88755 -0.000235211 1.96491e-08 6.7487e-26
27.3783 1.36289e-15 1.88755 -0.000207966 2.52205e-08 -8.88791e-26
27.3783 1.36289e-15 -1.88755 -0.000207966 2.52205e-08 -8.88791e-26
27.1246 1.35019e-15 1.88755 -0.000179497 3.41204e-08 9.95682e-60
27.1246 1.35019e-15 -1.88755 -0.000179497 3.41204e-08 9.95682e-60
26.88 1.33794e-15 1.88755 -0.00015041 2.98085e-08 0
26.88 1.33794e-15 -1.88755 -0.00015041 2.98085e-08 0
26.644 1.32612e-15 1.88755 -0.000121421 1.9053e-08 0
26.644 1.32612e-15 -1.88755 -0.000121421 1.9053e-08 0
26.4164 1.31472e-15 1.88755 -9.22681e-05 2.7739e-08 -1.01178e-25
26.4164 1.31472e-15 -1.88755 -9.22681e-05 2.7739e-08 -1.01178e-25
26.1968 1.30373e-15 1.88755 -6.25054e-05 1.97608e-08 0
26.1968 1.30373e-15 -1.88755 -6.25054e-05 1.97608e-08 0
25.985 1.29312e-15 1.88755 -3.29276e-05 1.23026e-08 -2.93374e-47
25.985 1.29312e-15 -1.88755 -3.29276e-05 1.23026e-08 -2.93374e-47
25.7807 1.28289e-15 1.88755 -3.49669e-06 2.22961e-08 0
25.7807 1.28289e-15 -1.88755 -3.49669e-06 2.22961e-08 0
25.5836 1.27302e-15 1.88755 2.62074e-05 1.83017e-08 3.88753e-47
25.5836 1.27302e-15 -1.88755 2.62074e-05 1.83017e-08 3.88753e-47
25.3935 1.2635e-15 1.88755 5.55524e-05 6.78323e-09 0
25.3935 1.2635e-15 -1.88755 5.55524e-05 6.78323e-09 0
25.2101 1.25432e-15 1.88755 8.42093e-05 1.83388e-09 8.43582e-37
25.2101 1.25432e-15 -1.88755 8.42093e-05 1.83388e-09 8.43582e-37
25.0332 1.24546e-15 1.88755 0.000112623 1.57854e-08 -9.42266e-37
25.0332 1.24546e-15 -1.88755 0.000112623 1.57854e-08 -9.42266e-37
24.8626 1.23692e-15 1.88755 0.000140656 1.45485e-08 0
24.8626 1.23692e-15 -1.88755 0.000140656 1.45485e-08 0
24.698 1.22867e-15 1.88755 0.000168138 1.46786e-08 -1.59203e-25
24.698 1.22867e-15 -1.88755 0.000168138 1.46786e-08 -1.59203e-25
24.5393 1.22072e-15 1.88755 0.000195147 2.85533e-08 -1.2755e-36
24.5393 1.22072e-15 -1.88755 0.000195147 2.85533e-08 -1.2755e-36
24.3861 1.21306e-15 1.88755 0.000221708 2.50872e-08 -1.92315e-25
24.3861 1.21306e-15 -1.88755 0.000221708 2.50872e-08 -1.92315e-25
24.2384 1.20566e-15 1.88755 0.00024743 2.63746e-08 1.5616e-43
24.2384 1.20566e-15 -1.88755 0.00024743 2.63746e-08 1.5616e-43
24.0959 1.19852e-15 1.88755 0.000272483 2.79705e-08 -1.66576e-36
24.0959 1.19852e-15 -1.88755 0.000272483 2.79705e-08 -1.66576e-36
23.9585 1.19164e-15 1.88755 0.000296845 3.31274e-08 -1.80867e-36
23.9585 1.19164e-15 -1.88755 0.000296845 3.31274e-08 -1.80867e-36
23.8259 1.185e-15 1.88755 0.00032059 4.43674e-08 1.95796e-36
23.8259 1.185e-15 -1.88755 0.00032059 4.43674e-08 1.95796e-36
23.698 1.1786e-15 1.88755 0.000343742 4.97995e-08 0
23.698 1.1786e-15 -1.88755 0.000343742 4.97995e-08 0
23.5746 1.17242e-15 1.88755 0.000366115 4.79827e-08 1.13819e-36
23.5746 1.17242e-15 -1.88755 0.000366115 4.79827e-08 1.13819e-36
23.4557 1.16646e-15 1.88755 0.000387564 4.57376e-08 -1.22282e-36
23.4557 1.16646e-15 -1.88755 0.000387564 4.57376e-08 -1.22282e-36
23.3409 1.16071e-15 1.88755 0.000408234 5.74165e-08 3.98273e-59
23.3409 1.16071e-15 -1.88755 0.000408234 5.74165e-08 3.98273e-59
23.2302 1.15517e-15 1.88755 0.000428181 5.74866e-08 -1.9269e-25
23.2302 1.15517e-15 -1.88755 0.000428181 5.74866e-08 -1.9269e-25
23.1234 1.14982e-15 1.88755 0.000447239 5.55147e-08 -2.057e-25
23.1234 1.14982e-15 -1.88755 0.000447239 5.55147e-08 -2.057e-25
23.0203 1.14466e-15 1.88755 0.000465473 5.82507e-08 0
23.0203 1.14466e-15 -1.88755 0.000465473 5.82507e-08 0
22.921 1.13969e-15 1.88755 0.000482815 4.93052e-08 1.69603e-36
22.921 1.13969e-15 -1.88755 0.000482815 4.93052e-08 1.69603e-36
22.8251 1.13489e-15 1.88755 0.000499201 4.36195e-08 -3.98273e-59
22.8251 1.13489e-15 -1.88755 0.000499201 4.36195e-08 -3.98273e-59
22.7326 1.13026e-15 1.88755 0.000514683 4.20967e-08 -2.62379e-25
22.7326 1.13026e-15 -1.88755 0.000514683 4.20967e-08 -2.62379e-25
22.6435 1.12579e-15 1.88755 0.000529337 3.63846e-08 2.77705e-25
22.6435 1.12579e-15 -1.88755 0.000529337 3.63846e-08 2.77705e-25
22.5574 1.12148e-15 1.88755 0.000543051 2.20416e-08 1.06776e-36
22.5574 1.12148e-15 -1.88755 0.000543051 2.20416e-08 1.06776e-36
22.4744 1.11733e-15 1.88755 0.000555832 9.42753e-09 -1.54887e-25
22.4744 1.11733e-15 -1.88755 0.000555832 9.42753e-09 -1.54887e-25
22.3944 1.11332e-15 1.88755 0.000567663 -7.17243e-09 3.98273e-59
22.3944 1.11332e-15 -1.88755 0.000567663 -7.17243e-09 3.98273e-59
22.3172 1.10945e-15 1.88755 0.000578541 -2.82151e-08 0
22.3172 1.10945e-15 -1.88755 0.000578541 -2.82151e-08 0
22.2427 1.10572e-15 1.88755 0.000588396 -6.08009e-08 3.16093e-43
22.2427 1.10572e-15 -1.88755 0.000588396 -6.08009e-08 3.16093e-43
22.1708 1.10212e-15 1.88755 0.000597148 -1.0238e-07 1.89773e-25
22.1708 1.10212e-15 -1.88755 0.000597148 -1.0238e-07 1.89773e-25
22.1015 1.09865e-15 1.88755 0.000604714 -1.60747e-07 -1.99096e-25
22.1015 1.09865e-15 -1.88755 0.000604714 -1.60747e-07 -1.99096e-25
22.0347 1.0953e-15 1.88755 0.000610899 -2.47945e-07 0
22.0347 1.0953e-15 -1.88755 0.000610899 -2.47945e-07 0
21.9702 1.09208e-15 1.88755 0.000615419 -4.07109e-07 3.85051e-47
21.9702 1.09208e-15 -1.88755 0.000615419 -4.07109e-07 3.85051e-47
21.908 1.08896e-15 1.88755 0.000617623 -7.02975e-07 0
21.908 1.08896e-15 -1.88755 0.000617623 -7.02975e-07 0
21.848 1.73472e-15 1.88755 0.000615389 -1.17756e-06 0
21.848 1.73472e-15 -1.88755 0.000615389 -1.17756e-06 0
21.7876 0.000188157 1.88755 0.000611195 -2.83672e-06 6.16768e-23
21.7876 0.000188157 -1.88755 0.000611195 -2.83672e-06 6.16768e-23
21.7272 0.00075262 1.88755 0.000611002 -5.96975e-06 3.03257e-26
21.7272 0.00075262 -1.88755 0.000611002 -5.96975e-06 3.03257e-26
21.6668 0.00169337 1.88755 0.0006139 -9.57021e-06 -2.5288e-22
21.6668 0.00169337 -1.88755 0.0006139 -9.57021e-06 -2.5288e-22
21.6063 0.00301036 1.88755 0.000616933 -1.32418e-05 -5.11599e-22
21.6063 0.00301036 -1.88755 0.000616933 -1.32418e-05 -5.11599e-22
21.546 0.00470355 1.88755 0.000619851 -1.69272e-05 1.46689e-27
21.546 0.00470355 -1.88755 0.000619851 -1.69272e-05 1.46689e-27
21.4856 0.00677288 1.88755 0.000622616 -2.065e-05 1.04677e-21
21.4856 0.00677288 -1.88755 0.000622616 -2.065e-05 1.04677e-21
21.4252 0.00921825 1.88755 0.00062516 -2.4408e-05 1.05928e-21
21.4252 0.00921825 -1.88755 0.00062516 -2.4408e-05 1.05928e-21
21.3649 0.0120396 1.88755 0.000627485 -2.81828e-05 1.07123e-21
21.3649 0.0120396 -1.88755 0.000627485 -2.81828e-05 1.07123e-21
21.3045 0.0152368 1.88755 0.000629571 -3.19841e-05 -1.8569e-25
21.3045 0.0152368 -1.88755 0.000629571 -3.19841e-05 -1.8569e-25
21.2442 0.0188097 1.88755 0.000631403 -3.5798e-05 1.09521e-21
21.2442 0.0188097 -1.88755 0.000631403 -3.5798e-05 1.09521e-21
21.1839 0.0227581 1.88755 0.000633047 -3.96269e-05 -3.54137e-25
21.1839 0.0227581 -1.88755 0.000633047 -3.96269e-05 -3.54137e-25
21.1237 0.0270821 1.88755 0.000634446 -4.34704e-05 2.74569e-25
21.1237 0.0270821 -1.88755 0.000634446 -4.34704e-05 2.74569e-25
21.0634 0.0317812 1.88755 0.000635669 -4.73187e-05 2.26173e-21
21.0634 0.0317812 -1.88755 0.000635669 -4.73187e-05 2.26173e-21
21.0032 0.0368555 1.88755 0.000636651 -5.11798e-05 2.28599e-21
21.0032 0.0368555 -1.88755 0.000636651 -5.11798e-05 2.28599e-21
20.9431 0.0423046 1.88755 0.000637414 -5.50309e-05 2.30983e-21
20.9431 0.0423046 -1.88755 0.000637414 -5.50309e-05 2.30983e-21
20.8829 0.0481284 1.88755 0.000638009 -5.88825e-05 4.66799e-21
20.8829 0.0481284 -1.88755 0.000638009 -5.88825e-05 4.66799e-21
20.8228 0.0543267 1.88755 0.000638456 -6.27326e-05 2.35739e-21
20.8228 0.0543267 -1.88755 0.000638456 -6.27326e-05 2.35739e-21
20.7628 0.0608992 1.88755 0.000638779 -6.65796e-05 -5.35681e-27
20.7628 0.0608992 -1.88755 0.000638779 -6.65796e-05 -5.35681e-27
20.7027 0.0678456 1.88755 0.000639017 -7.04242e-05 5.84752e-25
20.7027 0.0678456 -1.88755 0.000639017 -7.04242e-05 5.84752e-25
20.6428 0.0751657 1.88755 0.000639215 -7.42685e-05 -2.9797e-25
20.6428 0.0751657 -1.88755 0.000639215 -7.42685e-05 -2.9797e-25
20.5828 0.0828592 1.88755 0.000639432 -7.81162e-05 5.37124e-25
20.5828 0.0828592 -1.88755 0.000639432 -7.81162e-05 5.37124e-25
20.523 0.0909258 1.88755 0.000639749 -8.19736e-05 7.17465e-43
20.523 0.0909258 -1.88755 0.000639749 -8.19736e-05 7.17465e-43
20.4631 0.0993652 1.88755 0.000640285 -8.58509e-05 -1.7319e-37
20.4631 0.0993652 -1.88755 0.000640285 -8.58509e-05 -1.7319e-37
20.4034 0.108177 1.88755 0.000641218 -8.97654e-05 -3.09695e-25
20.4034 0.108177 -1.88755 0.000641218 -8.97654e-05 -3.09695e-25
20.3437 0.117361 1.88755 0.000642797 -9.37398e-05 5.10112e-21
20.3437 0.117361 -1.88755 0.000642797 -9.37398e-05 5.10112e-21
20.284 0.126917 1.88755 0.00064555 -9.78208e-05 -5.14793e-21
20.284 0.126917 -1.88755 0.00064555 -9.78208e-05 -5.14793e-21
20.2244 0.136844 1.88755 0.000649941 -0.000102026 7.95583e-26
20.2244 0.136844 -1.88755 0.000649941 -0.000102026 7.95583e-26
20.1649 0.147142 1.88755 0.000658854 -0.000106646 -7.94839e-26
20.1649 0.147142 -1.88755 0.000658854 -0.000106646 -7.94839e-26
20.1058 0.157553 1.88755 0.000669375 -0.00011027 1.6274e-25
20.1058 0.157553 -1.88755 0.000669375 -0.00011027 1.6274e-25
20.0454 0.168194 1.88755 0.000673978 -0.000111594 -5.26312e-21
20.0454 0.168194 -1.88755 0.000673978 -0.000111594 -5.26312e-21
19.9837 0.17907 1.88755 0.000674159 -0.000111807 5.21789e-21
19.9837 0.17907 -1.88755 0.000674159 -0.000111807 5.21789e-21
19.9206 0.190185 1.88755 0.000673859 -0.000111798 -7.21827e-38
19.9206 0.190185 -1.88755 0.000673859 -0.000111798 -7.21827e-38
19.8561 0.201547 1.88755 0.000673786 -0.000111816 5.12978e-21
19.8561 0.201547 -1.88755 0.000673786 -0.000111816 5.12978e-21
19.7902 0.213159 1.88755 0.00067377 -0.000111845 -5.08485e-21
19.7902 0.213159 -1.88755 0.00067377 -0.000111845 -5.08485e-21
19.7228 0.225027 1.88755 0.000673871 -0.000111886 -6.12646e-25
19.7228 0.225027 -1.88755 0.000673871 -0.000111886 -6.12646e-25
19.654 0.237157 1.88755 0.000674148 -0.000111953 4.9988e-21
19.654 0.237157 -1.88755 0.000674148 -0.000111953 4.9988e-21
19.5836 0.249555 1.88755 0.000674578 -0.000112045 -3.11506e-37
19.5836 0.249555 -1.88755 0.000674578 -0.000112045 -3.11506e-37
19.5117 0.262227 1.88755 0.000675133 -0.000112156 -5.87747e-39
19.5117 0.262227 -1.88755 0.000675133 -0.000112156 -5.87747e-39
19.4382 0.275178 1.88755 0.000675808 -0.000112284 -9.73674e-21
19.4382 0.275178 -1.88755 0.000675808 -0.000112284 -9.73674e-21
19.363 0.288415 1.88755 0.0006766 -0.000112429 -9.65278e-21
19.363 0.288415 -1.88755 0.0006766 -0.000112429 -9.65278e-21
19.2863 0.301945 1.88755 0.000677523 -0.000112594 1.16204e-24
19.2863 0.301945 -1.88755 0.000677523 -0.000112594 1.16204e-24
19.2078 0.315773 1.88755 0.000678576 -0.000112778 9.4819e-21
19.2078 0.315773 -1.88755 0.000678576 -0.000112778 9.4819e-21
19.1276 0.329906 1.88755 0.000679759 -0.000112984 1.87986e-20
19.1276 0.329906 -1.88755 0.000679759 -0.000112984 1.87986e-20
19.0456 0.344351 1.88755 0.000681062 -0.000113209 2.26334e-24
19.0456 0.344351 -1.88755 0.000681062 -0.000113209 2.26334e-24
18.9618 0.359115 1.88755 0.00068248 -0.000113453 -1.36318e-40
18.9618 0.359115 -1.88755 0.00068248 -0.000113453 -1.36318e-40
18.8761 0.374205 1.88755 0.000684009 -0.000113715 5.87747e-39
18.8761 0.374205 -1.88755 0.000684009 -0.000113715 5.87747e-39
18.7886 0.389628 1.88755 0.000685641 -0.000113994 9.08008e-21
18.7886 0.389628 -1.88755 0.000685641 -0.000113994 9.08008e-21
18.6991 0.405391 1.88755 0.000687372 -0.00011429 3.67342e-40
18.6991 0.405391 -1.88755 0.000687372 -0.00011429 3.67342e-40
18.6077 0.421503 1.88755 0.000689197 -0.000114601 8.92759e-21
18.6077 0.421503 -1.88755 0.000689197 -0.000114601 8.92759e-21
18.5142 0.43797 1.88755 0.000691108 -0.000114928 1.88079e-37
18.5142 0.43797 -1.88755 0.000691108 -0.000114928 1.88079e-37
18.4187 0.4548 1.88755 0.000693097 -0.000115268 -8.78003e-21
18.4187 0.4548 -1.88755 0.000693097 -0.000115268 -8.78003e-21
18.3211 0.472002 1.88755 0.000695153 -0.000115621 2.13796e-24
18.3211 0.472002 -1.88755 0.000695153 -0.000115621 2.13796e-24
18.2213 0.489584 1.88755 0.000697264 -0.000115984 -2.09705e-24
18.2213 0.489584 -1.88755 0.000697264 -0.000115984 -2.09705e-24
18.1193 0.507553 1.88755 0.000699416 -0.000116356 8.57033e-21
18.1193 0.507553 -1.88755 0.000699416 -0.000116356 8.57033e-21
18.015 0.52592 1.88755 0.000701598 -0.000116734 8.50336e-21
18.015 0.52592 -1.88755 0.000701598 -0.000116734 8.50336e-21
17.9085 0.544691 1.88755 0.000703793 -0.000117116 -1.68788e-20
17.9085 0.544691 -1.88755 0.000703793 -0.000117116 -1.68788e-20
17.7996 0.563878 1.88755 0.000705989 -0.0001175 2.03208e-24
17.7996 0.563878 -1.88755 0.000705989 -0.0001175 2.03208e-24
17.6883 0.583487 1.88755 0.000708171 -0.000117884 -1.66224e-20
17.6883 0.583487 -1.88755 0.000708171 -0.000117884 -1.66224e-20
17.5746 0.60353 1.88755 0.000710317 -0.000118263 3.67342e-40
17.5746 0.60353 -1.88755 0.000710317 -0.000118263 3.67342e-40
17.4583 0.624014 1.88755 0.000712417 -0.000118637 -1.63816e-20
17.4583 0.624014 -1.88755 0.000712417 -0.000118637 -1.63816e-20
17.3395 0.644951 1.88755 0.000714451 -0.000119002 1.62629e-20
17.3395 0.644951 -1.88755 0.000714451 -0.000119002 1.62629e-20
17.218 0.66635 1.88755 0.000716419 -0.000119356 3.94277e-24
17.218 0.66635 -1.88755 0.000716419 -0.000119356 3.94277e-24
17.0939 0.688222 1.88755 0.000718316 -0.0001197 1.60376e-20
17.0939 0.688222 -1.88755 0.000718316 -0.0001197 1.60376e-20
16.967 0.710576 1.88755 0.000720128 -0.00012003 5.87747e-39
16.967 0.710576 -1.88755 0.000720128 -0.00012003 5.87747e-39
16.8373 0.733423 1.88755 0.000721855 -0.000120349 -1.94437e-24
16.8373 0.733423 -1.88755 0.000721855 -0.000120349 -1.94437e-24
16.7048 0.756775 1.88755 0.000723485 -0.000120651 -2.57015e-26
16.7048 0.756775 -1.88755 0.000723485 -0.000120651 -2.57015e-26
16.5693 0.780643 1.88755 0.000725019 -0.000120939 1.89366e-24
16.5693 0.780643 -1.88755 0.000725019 -0.000120939 1.89366e-24
16.4309 0.805037 1.88755 0.000726456 -0.000121211 3.10409e-20
16.4309 0.805037 -1.88755 0.000726456 -0.000121211 3.10409e-20
16.2894 0.829969 1.88755 0.000727802 -0.000121467 8.03093e-25
16.2894 0.829969 -1.88755 0.000727802 -0.000121467 8.03093e-25
16.1447 0.855452 1.88755 0.000729063 -0.00012171 -1.533e-20
16.1447 0.855452 -1.88755 0.000729063 -0.00012171 -1.533e-20
15.9969 0.881498 1.88755 0.000730242 -0.000121939 1.5238e-20
15.9969 0.881498 -1.88755 0.000730242 -0.000121939 1.5238e-20
15.8458 0.908118 1.88755 0.00073134 -0.000122155 3.02964e-20
15.8458 0.908118 -1.88755 0.00073134 -0.000122155 3.02964e-20
15.6914 0.935326 1.88755 0.000732354 -0.000122357 3.01193e-20
15.6914 0.935326 -1.88755 0.000732354 -0.000122357 3.01193e-20
15.5336 0.963134 1.88755 0.000733315 -0.000122548 5.99026e-20
15.5336 0.963134 -1.88755 0.000733315 -0.000122548 5.99026e-20
15.3722 0.991557 1.88755 0.000734222 -0.000122733 -1.80434e-24
15.3722 0.991557 -1.88755 0.000734222 -0.000122733 -1.80434e-24
15.2074 1.02061 1.88755 0.000735022 -0.000122902 -1.35979e-24
15.2074 1.02061 -1.88755 0.000735022 -0.000122902 -1.35979e-24
15.0389 1.0503 1.88755 0.000735677 -0.000123047 -1.81174e-24
15.0389 1.0503 -1.88755 0.000735677 -0.000123047 -1.81174e-24
14.8666 1.08064 1.88755 0.000736149 -0.000123163 -1.32104e-24
14.8666 1.08064 -1.88755 0.000736149 -0.000123163 -1.32104e-24
14.6906 1.11166 1.88755 0.00073644 -0.000123249 -2.91572e-20
14.6906 1.11166 -1.88755 0.00073644 -0.000123249 -2.91572e-20
14.5107 1.14336 1.88755 0.000736499 -0.000123298 -1.78458e-24
14.5107 1.14336 -1.88755 0.000736499 -0.000123298 -1.78458e-24
14.3268 1.17576 1.88755 0.000736324 -0.000123304 1.74843e-24
14.3268 1.17576 -1.88755 0.000736324 -0.000123304 1.74843e-24
14.1388 1.20888 1.88755 0.000736021 -0.000123286 2.87363e-20
14.1388 1.20888 -1.88755 0.000736021 -0.000123286 2.87363e-20
13.9467 1.24272 1.88755 0.000735502 -0.000123233 1.17549e-38
13.9467 1.24272 -1.88755 0.000735502 -0.000123233 1.17549e-38
13.7504 1.27731 1.88755 0.00073471 -0.000123133 1.03444e-36
13.7504 1.27731 -1.88755 0.00073471 -0.000123133 1.03444e-36
13.5497 1.31267 1.88755 0.000733683 -0.00012299 -2.8349e-20
13.5497 1.31267 -1.88755 0.000733683 -0.00012299 -2.8349e-20
13.3446 1.34881 1.88755 0.000732325 -0.000122794 5.64611e-20
13.3446 1.34881 -1.88755 0.000732325 -0.000122794 5.64611e-20
13.135 1.38574 1.88755 0.00073046 -0.000122512 -1.70165e-24
13.135 1.38574 -1.88755 0.00073046 -0.000122512 -1.70165e-24
12.9207 1.42349 1.88755 0.000728249 -0.00012216 3.29138e-37
12.9207 1.42349 -1.88755 0.000728249 -0.00012216 3.29138e-37
12.7017 1.46208 1.88755 0.000725979 -0.000121785 -5.57937e-20
12.7017 1.46208 -1.88755 0.000725979 -0.000121785 -5.57937e-20
12.4779 1.50151 1.88755 0.000723519 -0.000121375 5.55962e-20
12.4779 1.50151 -1.88755 0.000723519 -0.000121375 5.55962e-20
12.2491 1.54182 1.88755 0.000720842 -0.000120917 -8.52953e-25
12.2491 1.54182 -1.88755 0.000720842 -0.000120917 -8.52953e-25
12.0153 1.58301 1.88755 0.000718086 -0.000120433 -5.52363e-20
12.0153 1.58301 -1.88755 0.000718086 -0.000120433 -5.52363e-20
11.7763 1.62512 1.88755 0.000715228 -0.000119921 -1.54057e-26
11.7763 1.62512 -1.88755 0.000715228 -0.000119921 -1.54057e-26
11.5321 1.66815 1.88755 0.000712347 -0.000119394 8.30671e-25
11.5321 1.66815 -1.88755 0.000712347 -0.000119394 8.30671e-25
11.2825 1.71214 1.88755 0.000709322 -0.000118833 5.48389e-20
11.2825 1.71214 -1.88755 0.000709322 -0.000118833 5.48389e-20
11.0273 1.75709 1.88755 0.000706337 -0.000118261 5.47519e-20
11.0273 1.75709 -1.88755 0.000706337 -0.000118261 5.47519e-20
10.7665 1.80304 1.88755 0.000703391 -0.000117683 -2.06553e-25
10.7665 1.80304 -1.88755 0.000703391 -0.000117683 -2.06553e-25
10.5 1.85 1.88755 0.000700386 -0.000117081 -5.87747e-39
10.5 1.85 -1.88755 0.000700386 -0.000117081 -5.87747e-39
10.2335 1.89696 1.88755 0.000697692 -0.000116518 -5.5867e-20
10.2335 1.89696 -1.88755 0.000697692 -0.000116518 -5.5867e-20
9.97268 1.94291 1.88755 0.000694861 -0.000115939 2.24951e-25
9.97268 1.94291 -1.88755 0.000694861 -0.000115939 2.24951e-25
9.71754 1.98786 1.88755 0.000691554 -0.000115273 6.09132e-20
9.71754 1.98786 -1.88755 0.000691554 -0.000115273 6.09132e-20
9.4679 2.03185 1.88755 0.000688496 -0.00011463 4.80185e-25
9.4679 2.03185 -1.88755 0.000688496 -0.00011463 4.80185e-25
9.22365 2.07488 1.88755 0.000685617 -0.000114013 6.63726e-20
9.22365 2.07488 -1.88755 0.000685617 -0.000114013 6.63726e-20
8.98468 2.11699 1.88755 0.000682747 -0.000113394 -1.17549e-38
8.98468 2.11699 -1.88755 0.000682747 -0.000113394 -1.17549e-38
8.75087 2.15818 1.88755 0.000679655 -0.000112737 0
8.75087 2.15818 -1.88755 0.000679655 -0.000112737 0
8.5221 2.19849 1.88755 0.000675931 -0.000111967 0
8.5221 2.19849 -1.88755 0.000675931 -0.000111967 0
8.29828 2.23792 1.88755 0.000671965 -0.000111135 1.57364e-19
8.29828 2.23792 -1.88755 0.000671965 -0.000111135 1.57364e-19
8.0793 2.27651 1.88755 0.000667979 -0.000110284 -8.20837e-20
8.0793 2.27651 -1.88755 0.000667979 -0.000110284 -8.20837e-20
7.86504 2.31426 1.88755 0.000663743 -0.000109378 5.87747e-39
7.86504 2.31426 -1.88755 0.000663743 -0.000109378 5.87747e-39
7.6554 2.35119 1.88755 0.000659005 -0.000108376 -4.46604e-20
7.6554 2.35119 -1.88755 0.000659005 -0.000108376 -4.46604e-20
7.4503 2.38733 1.88755 0.000653434 -0.000107222 -5.87747e-39
7.4503 2.38733 -1.88755 0.000653434 -0.000107222 -5.87747e-39
7.24963 2.42269 1.88755 0.000647076 -0.00010591 -6.0538e-36
7.24963 2.42269 -1.88755 0.000647076 -0.00010591 -6.0538e-36
7.05328 2.45728 1.88755 0.000640373 -0.000104509 1.01397e-19
7.05328 2.45728 -1.88755 0.000640373 -0.000104509 1.01397e-19
6.86118 2.49112 1.88755 0.000633082 -0.000102988 0
6.86118 2.49112 -1.88755 0.000633082 -0.000102988 0
6.67323 2.52424 1.88755 0.000625003 -0.000101312 -1.98738e-40
6.67323 2.52424 -1.88755 0.000625003 -0.000101312 -1.98738e-40
6.48934 2.55664 1.88755 0.000615778 -9.94218e-05 1.77609e-24
6.48934 2.55664 -1.88755 0.000615778 -9.94218e-05 1.77609e-24
6.30942 2.58834 1.88755 0.00060548 -9.73138e-05 -1.81562e-24
6.30942 2.58834 -1.88755 0.00060548 -9.73138e-05 -1.81562e-24
6.13338 2.61936 1.88755 0.000594447 -9.50446e-05 1.0697e-36