# wallShearStress  POINT_DATA 994
# x y z  wallShearStress_x wallShearStress_y wallShearStress_z
76.848 4.7 1.88755 -0.000559687 3.32266e-08 0
77.848 4.7 1.88755 -0.000559687 3.32266e-08 0
77.848 4.7 -1.88755 -0.000559687 3.32266e-08 0
76.848 4.7 -1.88755 -0.000559687 3.32266e-08 0
75.8596 4.7 -1.88755 -0.000568058 1.57793e-08 3.09837e-27
75.8596 4.7 1.88755 -0.000568058 1.57793e-08 3.09837e-27
74.8826 4.7 -1.88755 -0.000570395 2.17499e-08 0
74.8826 4.7 1.88755 -0.000570395 2.17499e-08 0
73.9169 4.7 -1.88755 -0.000576027 2.1931e-08 0
73.9169 4.7 1.88755 -0.000576027 2.1931e-08 0
72.9624 4.7 -1.88755 -0.000580427 2.24962e-08 0
72.9624 4.7 1.88755 -0.000580427 2.24962e-08 0
72.019 4.7 -1.88755 -0.000585482 2.32142e-08 1.00419e-26
72.019 4.7 1.88755 -0.000585482 2.32142e-08 1.00419e-26
71.0865 4.7 -1.88755 -0.000590392 2.44001e-08 0
71.0865 4.7 1.88755 -0.000590392 2.44001e-08 0
70.1648 4.7 -1.88755 -0.000595711 2.5375e-08 0
70.1648 4.7 1.88755 -0.000595711 2.5375e-08 0
69.2537 4.7 -1.88755 -0.00060093 2.57041e-08 3.18474e-26
69.2537 4.7 1.88755 -0.00060093 2.57041e-08 3.18474e-26
68.3532 4.7 -1.88755 -0.000606277 2.60577e-08 0
68.3532 4.7 1.88755 -0.000606277 2.60577e-08 0
67.4632 4.7 -1.88755 -0.000611595 2.70902e-08 -3.99523e-26
67.4632 4.7 1.88755 -0.000611595 2.70902e-08 -3.99523e-26
66.5834 4.7 -1.88755 -0.000617273 2.82413e-08 0
66.5834 4.7 1.88755 -0.000617273 2.82413e-08 0
65.7138 4.7 -1.88755 -0.000622976 2.94542e-08 0
65.7138 4.7 1.88755 -0.000622976 2.94542e-08 0
64.8543 4.7 -1.88755 -0.000629052 3.08402e-08 0
64.8543 4.7 1.88755 -0.000629052 3.08402e-08 0
64.0048 4.7 -1.88755 -0.00063522 3.22686e-08 0
64.0048 4.7 1.88755 -0.00063522 3.22686e-08 0
63.1651 4.7 -1.88755 -0.0006417 3.34194e-08 0
63.1651 4.7 1.88755 -0.0006417 3.34194e-08 0
62.3351 4.7 -1.88755 -0.000648242 3.52443e-08 6.54967e-26
62.3351 4.7 1.88755 -0.000648242 3.52443e-08 6.54967e-26
61.5147 4.7 -1.88755 -0.000655246 3.76402e-08 0
61.5147 4.7 1.88755 -0.000655246 3.76402e-08 0
60.7038 4.7 -1.88755 -0.000662486 3.88967e-08 0
60.7038 4.7 1.88755 -0.000662486 3.88967e-08 0
59.9024 4.7 -1.88755 -0.000669893 4.05835e-08 0
59.9024 4.7 1.88755 -0.000669893 4.05835e-08 0
59.1102 4.7 -1.88755 -0.000677625 4.2839e-08 0
59.1102 4.7 1.88755 -0.000677625 4.2839e-08 0
58.3271 4.7 -1.88755 -0.000685642 4.30776e-08 8.77638e-26
58.3271 4.7 1.88755 -0.000685642 4.30776e-08 8.77638e-26
57.5532 4.7 -1.88755 -0.000693516 4.60984e-08 -9.22371e-26
57.5532 4.7 1.88755 -0.000693516 4.60984e-08 -9.22371e-26
56.7882 4.7 -1.88755 -0.000702367 4.92517e-08 9.67722e-26
56.7882 4.7 1.88755 -0.000702367 4.92517e-08 9.67722e-26
56.032 4.7 -1.88755 -0.000711231 5.22704e-08 1.01296e-25
56.032 4.7 1.88755 -0.000711231 5.22704e-08 1.01296e-25
55.2846 4.7 -1.88755 -0.0007209 5.59921e-08 0
55.2846 4.7 1.88755 -0.0007209 5.59921e-08 0
54.5459 4.7 -1.88755 -0.000730805 5.86986e-08 0
54.5459 4.7 1.88755 -0.000730805 5.86986e-08 0
53.8157 4.7 -1.88755 -0.000741194 6.2145e-08 0
53.8157 4.7 1.88755 -0.000741194 6.2145e-08 0
53.094 4.7 -1.88755 -0.000751999 6.4565e-08 0
53.094 4.7 1.88755 -0.000751999 6.4565e-08 0
52.3806 4.7 -1.88755 -0.000762998 6.68515e-08 0
52.3806 4.7 1.88755 -0.000762998 6.68515e-08 0
51.6755 4.7 -1.88755 -0.000774426 7.0244e-08 0
51.6755 4.7 1.88755 -0.000774426 7.0244e-08 0
50.9785 4.7 -1.88755 -0.000786326 7.42313e-08 0
50.9785 4.7 1.88755 -0.000786326 7.42313e-08 0
50.2897 4.7 -1.88755 -0.000798728 7.74686e-08 1.37315e-25
50.2897 4.7 1.88755 -0.000798728 7.74686e-08 1.37315e-25
49.6088 4.7 -1.88755 -0.00081135 7.95228e-08 0
49.6088 4.7 1.88755 -0.00081135 7.95228e-08 0
48.9358 4.7 -1.88755 -0.000824249 8.20015e-08 0
48.9358 4.7 1.88755 -0.000824249 8.20015e-08 0
48.2705 4.7 -1.88755 -0.000837387 8.42717e-08 0
48.2705 4.7 1.88755 -0.000837387 8.42717e-08 0
47.613 4.7 -1.88755 -0.000850809 8.71122e-08 0
47.613 4.7 1.88755 -0.000850809 8.71122e-08 0
46.9631 4.7 -1.88755 -0.000864552 9.02563e-08 1.58134e-25
46.9631 4.7 1.88755 -0.000864552 9.02563e-08 1.58134e-25
46.3207 4.7 -1.88755 -0.000878703 9.4453e-08 0
46.3207 4.7 1.88755 -0.000878703 9.4453e-08 0
45.6858 4.7 -1.88755 -0.000893113 9.50172e-08 -1.65617e-25
45.6858 4.7 1.88755 -0.000893113 9.50172e-08 -1.65617e-25
45.0582 4.7 -1.88755 -0.000907115 9.18893e-08 0
45.0582 4.7 1.88755 -0.000907115 9.18893e-08 0
44.4379 4.7 -1.88755 -0.000920801 9.08709e-08 1.72218e-25
44.4379 4.7 1.88755 -0.000920801 9.08709e-08 1.72218e-25
43.8248 4.7 -1.88755 -0.000934824 9.64118e-08 0
43.8248 4.7 1.88755 -0.000934824 9.64118e-08 0
43.2187 4.7 -1.88755 -0.000949586 1.01252e-07 0
43.2187 4.7 1.88755 -0.000949586 1.01252e-07 0
42.6197 4.7 -1.88755 -0.000964673 1.05103e-07 0
42.6197 4.7 1.88755 -0.000964673 1.05103e-07 0
42.0276 4.7 -1.88755 -0.000980248 1.09833e-07 1.82123e-25
42.0276 4.7 1.88755 -0.000980248 1.09833e-07 1.82123e-25
41.4424 4.7 -1.88755 -0.000996381 1.14476e-07 1.83699e-25
41.4424 4.7 1.88755 -0.000996381 1.14476e-07 1.83699e-25
40.8639 4.7 -1.88755 -0.00101281 1.16873e-07 1.84753e-25
40.8639 4.7 1.88755 -0.00101281 1.16873e-07 1.84753e-25
40.2922 4.7 -1.88755 -0.00102944 1.18256e-07 0
40.2922 4.7 1.88755 -0.00102944 1.18256e-07 0
39.727 4.7 -1.88755 -0.00104636 1.21794e-07 0
39.727 4.7 1.88755 -0.00104636 1.21794e-07 0
39.1685 4.7 -1.88755 -0.00106395 1.26224e-07 0
39.1685 4.7 1.88755 -0.00106395 1.26224e-07 0
38.6163 4.7 -1.88755 -0.00108177 1.33253e-07 0
38.6163 4.7 1.88755 -0.00108177 1.33253e-07 0
38.0706 4.7 -1.88755 -0.00110061 1.38577e-07 0
38.0706 4.7 1.88755 -0.00110061 1.38577e-07 0
37.5312 4.7 -1.88755 -0.00111909 1.33825e-07 0
37.5312 4.7 1.88755 -0.00111909 1.33825e-07 0
36.998 4.7 -1.88755 -0.00113734 1.38401e-07 0
36.998 4.7 1.88755 -0.00113734 1.38401e-07 0
36.4711 4.7 -1.88755 -0.00115714 1.50174e-07 -8.35144e-26
36.4711 4.7 1.88755 -0.00115714 1.50174e-07 -8.35144e-26
35.9502 4.7 -1.88755 -0.00117783 1.57914e-07 -8.00774e-26
35.9502 4.7 1.88755 -0.00117783 1.57914e-07 -8.00774e-26
35.4353 4.7 -1.88755 -0.00119924 1.65992e-07 0
35.4353 4.7 1.88755 -0.00119924 1.65992e-07 0
34.9264 4.7 -1.88755 -0.00122148 1.79443e-07 7.09416e-26
34.9264 4.7 1.88755 -0.00122148 1.79443e-07 7.09416e-26
34.4234 4.7 -1.88755 -0.0012445 1.77456e-07 0
34.4234 4.7 1.88755 -0.0012445 1.77456e-07 0
33.9204 4.7 -1.88755 -0.00126624 1.64861e-07 0
33.9204 4.7 1.88755 -0.00126624 1.64861e-07 0
33.4352 4.7 -1.88755 -0.00128786 1.62338e-07 0
33.4352 4.7 1.88755 -0.00128786 1.62338e-07 0
32.9672 4.7 -1.88755 -0.00130959 1.73602e-07 -4.22503e-26
32.9672 4.7 1.88755 -0.00130959 1.73602e-07 -4.22503e-26
32.5157 4.7 -1.88755 -0.00133171 1.86962e-07 0
32.5157 4.7 1.88755 -0.00133171 1.86962e-07 0
32.0803 4.7 -1.88755 -0.001354 1.87969e-07 0
32.0803 4.7 1.88755 -0.001354 1.87969e-07 0
31.6602 4.7 -1.88755 -0.00137551 2.00709e-07 0
31.6602 4.7 1.88755 -0.00137551 2.00709e-07 0
31.255 4.7 -1.88755 -0.00139835 2.15933e-07 7.70445e-27
31.255 4.7 1.88755 -0.00139835 2.15933e-07 7.70445e-27
30.8642 4.7 -1.88755 -0.00142013 2.19682e-07 0
30.8642 4.7 1.88755 -0.00142013 2.19682e-07 0
30.4871 4.7 -1.88755 -0.00144076 1.96923e-07 0
30.4871 4.7 1.88755 -0.00144076 1.96923e-07 0
30.1235 4.7 -1.88755 -0.00145835 1.86599e-07 0
30.1235 4.7 1.88755 -0.00145835 1.86599e-07 0
29.7727 4.7 -1.88755 -0.00147793 2.04031e-07 -4.62065e-26
29.7727 4.7 1.88755 -0.00147793 2.04031e-07 -4.62065e-26
29.4343 4.7 -1.88755 -0.00149664 1.48891e-07 0
29.4343 4.7 1.88755 -0.00149664 1.48891e-07 0
29.1079 4.7 -1.88755 -0.00151043 1.08723e-07 0
29.1079 4.7 1.88755 -0.00151043 1.08723e-07 0
28.793 4.7 -1.88755 -0.0015251 2.02032e-07 -9.26921e-26
28.793 4.7 1.88755 -0.0015251 2.02032e-07 -9.26921e-26
28.4893 4.7 -1.88755 -0.00154743 2.56106e-07 0
28.4893 4.7 1.88755 -0.00154743 2.56106e-07 0
28.1964 4.7 -1.88755 -0.0015667 2.5989e-07 -1.30425e-25
28.1964 4.7 1.88755 -0.0015667 2.5989e-07 -1.30425e-25
27.9138 4.7 -1.88755 -0.00158733 2.23355e-07 0
27.9138 4.7 1.88755 -0.00158733 2.23355e-07 0
27.6412 4.7 -1.88755 -0.00160187 1.93992e-07 0
27.6412 4.7 1.88755 -0.00160187 1.93992e-07 0
27.3783 4.7 -1.88755 -0.0016189 2.10817e-07 2.0048e-25
27.3783 4.7 1.88755 -0.0016189 2.10817e-07 2.0048e-25
27.1246 4.7 -1.88755 -0.0016345 2.6352e-07 0
27.1246 4.7 1.88755 -0.0016345 2.6352e-07 0
26.88 4.7 -1.88755 -0.00165261 2.13818e-07 0
26.88 4.7 1.88755 -0.00165261 2.13818e-07 0
26.644 4.7 -1.88755 -0.00166478 1.25937e-07 0
26.644 4.7 1.88755 -0.00166478 1.25937e-07 0
26.4164 4.7 -1.88755 -0.00167717 2.57918e-07 -1.59534e-25
26.4164 4.7 1.88755 -0.00167717 2.57918e-07 -1.59534e-25
26.1968 4.7 -1.88755 -0.00169773 3.59912e-07 0
26.1968 4.7 1.88755 -0.00169773 3.59912e-07 0
25.985 4.7 -1.88755 -0.00171609 3.37398e-07 1.93913e-25
25.985 4.7 1.88755 -0.00171609 3.37398e-07 1.93913e-25
25.7807 4.7 -1.88755 -0.00173323 3.04853e-07 0
25.7807 4.7 1.88755 -0.00173323 3.04853e-07 0
25.5836 4.7 -1.88755 -0.00174708 2.45353e-07 0
25.5836 4.7 1.88755 -0.00174708 2.45353e-07 0
25.3935 4.7 -1.88755 -0.00175707 2.1401e-07 -2.53857e-25
25.3935 4.7 1.88755 -0.00175707 2.1401e-07 -2.53857e-25
25.2101 4.7 -1.88755 -0.00177065 2.47508e-07 0
25.2101 4.7 1.88755 -0.00177065 2.47508e-07 0
25.0332 4.7 -1.88755 -0.00178449 3.52889e-07 -2.98419e-25
25.0332 4.7 1.88755 -0.00178449 3.52889e-07 -2.98419e-25
24.8626 4.7 -1.88755 -0.00180361 4.00508e-07 0
24.8626 4.7 1.88755 -0.00180361 4.00508e-07 0
24.698 4.7 -1.88755 -0.00181802 5.29578e-07 1.72924e-25
24.698 4.7 1.88755 -0.00181802 5.29578e-07 1.72924e-25
24.5393 4.7 -1.88755 -0.00183923 4.71308e-07 0
24.5393 4.7 1.88755 -0.00183923 4.71308e-07 0
24.3861 4.7 -1.88755 -0.00184861 2.4507e-07 1.98745e-25
24.3861 4.7 1.88755 -0.00184861 2.4507e-07 1.98745e-25
24.2384 4.7 -1.88755 -0.00185679 2.11786e-07 -2.12777e-25
24.2384 4.7 1.88755 -0.00185679 2.11786e-07 -2.12777e-25
24.0959 4.7 -1.88755 -0.00186525 1.69269e-07 0
24.0959 4.7 1.88755 -0.00186525 1.69269e-07 0
23.9585 4.7 -1.88755 -0.00187426 2.16383e-07 2.41971e-25
23.9585 4.7 1.88755 -0.00187426 2.16383e-07 2.41971e-25
23.8259 4.7 -1.88755 -0.00188415 3.3638e-07 0
23.8259 4.7 1.88755 -0.00188415 3.3638e-07 0
23.698 4.7 -1.88755 -0.00189724 2.63409e-07 0
23.698 4.7 1.88755 -0.00189724 2.63409e-07 0
23.5746 4.7 -1.88755 -0.00190214 2.54717e-07 2.8851e-25
23.5746 4.7 1.88755 -0.00190214 2.54717e-07 2.8851e-25
23.4557 4.7 -1.88755 -0.00191316 1.55394e-07 0
23.4557 4.7 1.88755 -0.00191316 1.55394e-07 0
23.3409 4.7 -1.88755 -0.00191571 2.00149e-07 1.6111e-25
23.3409 4.7 1.88755 -0.00191571 2.00149e-07 1.6111e-25
23.2302 4.7 -1.88755 -0.00192667 1.82897e-07 1.69711e-25
23.2302 4.7 1.88755 -0.00192667 1.82897e-07 1.69711e-25
23.1234 4.7 -1.88755 -0.00193211 1.5362e-07 -1.789e-25
23.1234 4.7 1.88755 -0.00193211 1.5362e-07 -1.789e-25
23.0203 4.7 -1.88755 -0.00193867 4.73855e-07 1.88035e-25
23.0203 4.7 1.88755 -0.00193867 4.73855e-07 1.88035e-25
22.921 4.7 -1.88755 -0.0019556 7.40787e-07 0
22.921 4.7 1.88755 -0.0019556 7.40787e-07 0
22.8251 4.7 -1.88755 -0.00196708 6.71285e-07 0
22.8251 4.7 1.88755 -0.00196708 6.71285e-07 0
22.7326 4.7 -1.88755 -0.00197606 1.19011e-07 0
22.7326 4.7 1.88755 -0.00197606 1.19011e-07 0
22.6435 4.7 -1.88755 -0.00197946 1.30342e-07 0
22.6435 4.7 1.88755 -0.00197946 1.30342e-07 0
22.5574 4.7 -1.88755 -0.00198429 4.73289e-07 -2.35603e-25
22.5574 4.7 1.88755 -0.00198429 4.73289e-07 -2.35603e-25
22.4744 4.7 -1.88755 -0.00199871 8.93505e-07 1.22672e-25
22.4744 4.7 1.88755 -0.00199871 8.93505e-07 1.22672e-25
22.3944 4.7 -1.88755 -0.0020106 1.22938e-06 1.27593e-25
22.3944 4.7 1.88755 -0.0020106 1.22938e-06 1.27593e-25
22.3172 4.7 -1.88755 -0.00202519 8.36045e-07 0
22.3172 4.7 1.88755 -0.00202519 8.36045e-07 0
22.2427 4.7 -1.88755 -0.00203304 5.4829e-07 0
22.2427 4.7 1.88755 -0.00203304 5.4829e-07 0
22.1708 4.7 -1.88755 -0.0020395 3.75712e-07 0
22.1708 4.7 1.88755 -0.0020395 3.75712e-07 0
22.1015 4.7 -1.88755 -0.00204209 1.91377e-07 0
22.1015 4.7 1.88755 -0.00204209 1.91377e-07 0
22.0347 4.7 -1.88755 -0.00204626 -3.03354e-07 0
22.0347 4.7 1.88755 -0.00204626 -3.03354e-07 0
21.9702 4.7 -1.88755 -0.00204542 -3.31019e-08 -1.59895e-25
21.9702 4.7 1.88755 -0.00204542 -3.31019e-08 -1.59895e-25
21.908 4.7 -1.88755 -0.0020469 2.71795e-07 1.65706e-25
21.908 4.7 1.88755 -0.0020469 2.71795e-07 1.65706e-25
21.848 4.7 -1.88755 -0.00205252 -1.26871e-07 0
21.848 4.7 1.88755 -0.00205252 -1.26871e-07 0
21.7879 4.7 -1.88755 -0.00205249 -4.67242e-08 -1.73164e-25
21.7879 4.7 1.88755 -0.00205249 -4.67242e-08 -1.73164e-25
21.7278 4.7 -1.88755 -0.00205476 1.17639e-07 0
21.7278 4.7 1.88755 -0.00205476 1.17639e-07 0
21.6677 4.7 -1.88755 -0.00206076 2.29364e-07 0
21.6677 4.7 1.88755 -0.00206076 2.29364e-07 0
21.6075 4.7 -1.88755 -0.0020635 2.36078e-08 0
21.6075 4.7 1.88755 -0.0020635 2.36078e-08 0
21.5474 4.7 -1.88755 -0.0020663 -1.06028e-07 9.08154e-26
21.5474 4.7 1.88755 -0.0020663 -1.06028e-07 9.08154e-26
21.4873 4.7 -1.88755 -0.00207051 3.35075e-07 -2.74203e-25
21.4873 4.7 1.88755 -0.00207051 3.35075e-07 -2.74203e-25
21.4272 4.7 -1.88755 -0.00208291 9.06061e-07 1.83143e-25
21.4272 4.7 1.88755 -0.00208291 9.06061e-07 1.83143e-25
21.3671 4.7 -1.88755 -0.00209662 1.57156e-06 1.48368e-24
21.3671 4.7 1.88755 -0.00209662 1.57156e-06 1.48368e-24
21.307 4.7 -1.88755 -0.00211396 1.94374e-06 0
21.307 4.7 1.88755 -0.00211396 1.94374e-06 0
21.2469 4.7 -1.88755 -0.00213279 1.76175e-06 -1.88632e-25
21.2469 4.7 1.88755 -0.00213279 1.76175e-06 -1.88632e-25
21.1868 4.7 -1.88755 -0.00214637 1.32548e-06 1.88324e-25
21.1868 4.7 1.88755 -0.00214637 1.32548e-06 1.88324e-25
21.1267 4.7 -1.88755 -0.00215516 6.60916e-07 3.0546e-24
21.1267 4.7 1.88755 -0.00215516 6.60916e-07 3.0546e-24
21.0665 4.7 -1.88755 -0.00215785 1.59673e-07 0
21.0665 4.7 1.88755 -0.00215785 1.59673e-07 0
21.0064 4.7 -1.88755 -0.00216035 2.71913e-07 3.12203e-24
21.0064 4.7 1.88755 -0.00216035 2.71913e-07 3.12203e-24
20.9463 4.7 -1.88755 -0.00216463 3.46776e-07 3.15599e-24
20.9463 4.7 1.88755 -0.00216463 3.46776e-07 3.15599e-24
20.8862 4.7 -1.88755 -0.00216781 1.73567e-07 -4.00703e-25
20.8862 4.7 1.88755 -0.00216781 1.73567e-07 -4.00703e-25
20.8261 4.7 -1.88755 -0.00217006 1.17676e-07 3.62588e-24
20.8261 4.7 1.88755 -0.00217006 1.17676e-07 3.62588e-24
20.766 4.7 -1.88755 -0.00217204 6.60407e-08 0
20.766 4.7 1.88755 -0.00217204 6.60407e-08 0
20.7059 4.7 -1.88755 -0.00217363 3.68108e-08 0
20.7059 4.7 1.88755 -0.00217363 3.68108e-08 0
20.6458 4.7 -1.88755 -0.00217501 1.37241e-08 -3.12327e-24
20.6458 4.7 1.88755 -0.00217501 1.37241e-08 -3.12327e-24
20.5857 4.7 -1.88755 -0.00217616 -1.40235e-09 1.97469e-27
20.5857 4.7 1.88755 -0.00217616 -1.40235e-09 1.97469e-27
20.5255 4.7 -1.88755 -0.0021771 -1.68958e-08 -4.25907e-25
20.5255 4.7 1.88755 -0.0021771 -1.68958e-08 -4.25907e-25
20.4654 4.7 -1.88755 -0.00217778 -3.6567e-08 7.10533e-24
20.4654 4.7 1.88755 -0.00217778 -3.6567e-08 7.10533e-24
20.4053 4.7 -1.88755 -0.00217812 -6.59536e-08 -6.96882e-24
20.4053 4.7 1.88755 -0.00217812 -6.59536e-08 -6.96882e-24
20.3452 4.7 -1.88755 -0.00217801 -1.07322e-07 -6.827e-24
20.3452 4.7 1.88755 -0.00217801 -1.07322e-07 -6.827e-24
20.2851 4.7 -1.88755 -0.00217737 -1.59677e-07 -2.21791e-25
20.2851 4.7 1.88755 -0.00217737 -1.59677e-07 -2.21791e-25
20.225 4.7 -1.88755 -0.00217617 -2.15206e-07 0
20.225 4.7 1.88755 -0.00217617 -2.15206e-07 0
20.1649 4.7 -1.88755 -0.00217447 -2.57653e-07 -7.2984e-24
20.1649 4.7 1.88755 -0.00217447 -2.57653e-07 -7.2984e-24
20.1049 4.7 -1.88755 -0.00217243 -2.5789e-07 -1.16063e-25
20.1049 4.7 1.88755 -0.00217243 -2.5789e-07 -1.16063e-25
20.0436 4.7 -1.88755 -0.0021704 -2.38886e-07 1.14768e-25
20.0436 4.7 1.88755 -0.0021704 -2.38886e-07 1.14768e-25
19.9809 4.7 -1.88755 -0.00216841 -2.40325e-07 7.36159e-24
19.9809 4.7 1.88755 -0.00216841 -2.40325e-07 7.36159e-24
19.9169 4.7 -1.88755 -0.0021662 -2.48209e-07 -4.61179e-25
19.9169 4.7 1.88755 -0.0021662 -2.48209e-07 -4.61179e-25
19.8516 4.7 -1.88755 -0.0021639 -2.45671e-07 -6.87242e-24
19.8516 4.7 1.88755 -0.0021639 -2.45671e-07 -6.87242e-24
19.7848 4.7 -1.88755 -0.00216149 -2.4377e-07 0
19.7848 4.7 1.88755 -0.00216149 -2.4377e-07 0
19.7165 4.7 -1.88755 -0.00215902 -2.39858e-07 -7.29509e-24
19.7165 4.7 1.88755 -0.00215902 -2.39858e-07 -7.29509e-24
19.6468 4.7 -1.88755 -0.00215646 -2.34241e-07 0
19.6468 4.7 1.88755 -0.00215646 -2.34241e-07 0
19.5755 4.7 -1.88755 -0.00215387 -2.24241e-07 -7.26198e-24
19.5755 4.7 1.88755 -0.00215387 -2.24241e-07 -7.26198e-24
19.5027 4.7 -1.88755 -0.00215125 -2.10735e-07 0
19.5027 4.7 1.88755 -0.00215125 -2.10735e-07 0
19.4284 4.7 -1.88755 -0.00214862 -2.01442e-07 0
19.4284 4.7 1.88755 -0.00214862 -2.01442e-07 0
19.3524 4.7 -1.88755 -0.00214593 -1.91768e-07 -9.0611e-25
19.3524 4.7 1.88755 -0.00214593 -1.91768e-07 -9.0611e-25
19.2747 4.7 -1.88755 -0.00214322 -1.78907e-07 8.94796e-25
19.2747 4.7 1.88755 -0.00214322 -1.78907e-07 8.94796e-25
19.1954 4.7 -1.88755 -0.0021405 -1.68682e-07 -9.02016e-25
19.1954 4.7 1.88755 -0.0021405 -1.68682e-07 -9.02016e-25
19.1144 4.7 -1.88755 -0.00213771 -1.60137e-07 2.69046e-24
19.1144 4.7 1.88755 -0.00213771 -1.60137e-07 2.69046e-24
19.0315 4.7 -1.88755 -0.00213489 -1.50909e-07 1.90458e-26
19.0315 4.7 1.88755 -0.00213489 -1.50909e-07 1.90458e-26
18.9469 4.7 -1.88755 -0.00213203 -1.38037e-07 1.92155e-26
18.9469 4.7 1.88755 -0.00213203 -1.38037e-07 1.92155e-26
18.8605 4.7 -1.88755 -0.00212919 -1.25166e-07 -1.59912e-23
18.8605 4.7 1.88755 -0.00212919 -1.25166e-07 -1.59912e-23
18.7722 4.7 -1.88755 -0.00212633 -1.11895e-07 1.78344e-24
18.7722 4.7 1.88755 -0.00212633 -1.11895e-07 1.78344e-24
18.6819 4.7 -1.88755 -0.00212349 -9.86958e-08 -3.53887e-24
18.6819 4.7 1.88755 -0.00212349 -9.86958e-08 -3.53887e-24
18.5898 4.7 -1.88755 -0.00212064 -8.73771e-08 1.75524e-24
18.5898 4.7 1.88755 -0.00212064 -8.73771e-08 1.75524e-24
18.4956 4.7 -1.88755 -0.00211777 -7.65531e-08 1.23165e-23
18.4956 4.7 1.88755 -0.00211777 -7.65531e-08 1.23165e-23
18.3993 4.7 -1.88755 -0.00211489 -6.37322e-08 3.51346e-24
18.3993 4.7 1.88755 -0.00211489 -6.37322e-08 3.51346e-24
18.301 4.7 -1.88755 -0.00211203 -5.09566e-08 -1.7423e-24
18.301 4.7 1.88755 -0.00211203 -5.09566e-08 -1.7423e-24
18.2005 4.7 -1.88755 -0.00210919 -3.93159e-08 1.39861e-23
18.2005 4.7 1.88755 -0.00210919 -3.93159e-08 1.39861e-23
18.0979 4.7 -1.88755 -0.00210635 -2.38912e-08 2.79051e-23
18.0979 4.7 1.88755 -0.00210635 -2.38912e-08 2.79051e-23
17.993 4.7 -1.88755 -0.00210359 -9.3412e-09 2.60875e-23
17.993 4.7 1.88755 -0.00210359 -9.3412e-09 2.60875e-23
17.8859 4.7 -1.88755 -0.00210082 4.60484e-10 1.72514e-24
17.8859 4.7 1.88755 -0.00210082 4.60484e-10 1.72514e-24
17.7764 4.7 -1.88755 -0.00209804 1.17299e-08 0
17.7764 4.7 1.88755 -0.00209804 1.17299e-08 0
17.6645 4.7 -1.88755 -0.00209529 2.65519e-08 0
17.6645 4.7 1.88755 -0.00209529 2.65519e-08 0
17.5502 4.7 -1.88755 -0.00209262 4.07778e-08 0
17.5502 4.7 1.88755 -0.00209262 4.07778e-08 0
17.4335 4.7 -1.88755 -0.00208999 5.31244e-08 2.57777e-23
17.4335 4.7 1.88755 -0.00208999 5.31244e-08 2.57777e-23
17.3142 4.7 -1.88755 -0.00208741 6.60951e-08 2.91476e-23
17.3142 4.7 1.88755 -0.00208741 6.60951e-08 2.91476e-23
17.1923 4.7 -1.88755 -0.00208486 8.01754e-08 0
17.1923 4.7 1.88755 -0.00208486 8.01754e-08 0
17.0678 4.7 -1.88755 -0.00208241 9.32382e-08 0
17.0678 4.7 1.88755 -0.00208241 9.32382e-08 0
16.9405 4.7 -1.88755 -0.00207999 1.05948e-07 2.72536e-23
16.9405 4.7 1.88755 -0.00207999 1.05948e-07 2.72536e-23
16.8105 4.7 -1.88755 -0.00207765 1.19348e-07 -2.89027e-23
16.8105 4.7 1.88755 -0.00207765 1.19348e-07 -2.89027e-23
16.6777 4.7 -1.88755 -0.00207534 1.29869e-07 1.68417e-24
16.6777 4.7 1.88755 -0.00207534 1.29869e-07 1.68417e-24
16.542 4.7 -1.88755 -0.00207302 1.37007e-07 -2.87747e-23
16.542 4.7 1.88755 -0.00207302 1.37007e-07 -2.87747e-23
16.4034 4.7 -1.88755 -0.00207063 1.45308e-07 -2.53364e-23
16.4034 4.7 1.88755 -0.00207063 1.45308e-07 -2.53364e-23
16.2617 4.7 -1.88755 -0.00206833 1.57787e-07 0
16.2617 4.7 1.88755 -0.00206833 1.57787e-07 0
16.117 4.7 -1.88755 -0.00206616 1.7558e-07 0
16.117 4.7 1.88755 -0.00206616 1.7558e-07 0
15.9691 4.7 -1.88755 -0.00206427 2.00033e-07 0
15.9691 4.7 1.88755 -0.00206427 2.00033e-07 0
15.818 4.7 -1.88755 -0.0020626 2.10874e-07 -1.68661e-24
15.818 4.7 1.88755 -0.0020626 2.10874e-07 -1.68661e-24
15.6636 4.7 -1.88755 -0.00206056 2.09525e-07 -5.01322e-23
15.6636 4.7 1.88755 -0.00206056 2.09525e-07 -5.01322e-23
15.5059 4.7 -1.88755 -0.00205835 2.09978e-07 -5.50287e-23
15.5059 4.7 1.88755 -0.00205835 2.09978e-07 -5.50287e-23
15.3448 4.7 -1.88755 -0.00205581 2.07803e-07 0
15.3448 4.7 1.88755 -0.00205581 2.07803e-07 0
15.1801 4.7 -1.88755 -0.00205293 2.05325e-07 -1.6748e-24
15.1801 4.7 1.88755 -0.00205293 2.05325e-07 -1.6748e-24
15.0119 4.7 -1.88755 -0.00204964 2.01342e-07 1.64658e-24
15.0119 4.7 1.88755 -0.00204964 2.01342e-07 1.64658e-24
14.84 4.7 -1.88755 -0.0020459 1.96896e-07 0
14.84 4.7 1.88755 -0.0020459 1.96896e-07 0
14.6644 4.7 -1.88755 -0.00204166 1.91647e-07 -1.66776e-24
14.6644 4.7 1.88755 -0.00204166 1.91647e-07 -1.66776e-24
14.485 4.7 -1.88755 -0.00203686 1.8491e-07 3.30506e-24
14.485 4.7 1.88755 -0.00203686 1.8491e-07 3.30506e-24
14.3017 4.7 -1.88755 -0.00203137 1.76284e-07 2.69429e-26
14.3017 4.7 1.88755 -0.00203137 1.76284e-07 2.69429e-26
14.1144 4.7 -1.88755 -0.00202514 1.66096e-07 -1.63538e-24
14.1144 4.7 1.88755 -0.00202514 1.66096e-07 -1.63538e-24
13.9231 4.7 -1.88755 -0.00201804 1.53616e-07 -5.10604e-23
13.9231 4.7 1.88755 -0.00201804 1.53616e-07 -5.10604e-23
13.7276 4.7 -1.88755 -0.00200995 1.39213e-07 -3.29314e-24
13.7276 4.7 1.88755 -0.00200995 1.39213e-07 -3.29314e-24
13.5278 4.7 -1.88755 -0.00200079 1.22888e-07 5.26332e-23
13.5278 4.7 1.88755 -0.00200079 1.22888e-07 5.26332e-23
13.3237 4.7 -1.88755 -0.00199047 1.05543e-07 1.06926e-22
13.3237 4.7 1.88755 -0.00199047 1.05543e-07 1.06926e-22
13.1152 4.7 -1.88755 -0.00197903 8.8123e-08 -1.0363e-22
13.1152 4.7 1.88755 -0.00197903 8.8123e-08 -1.0363e-22
12.9022 4.7 -1.88755 -0.00196658 7.20393e-08 -1.63055e-24
12.9022 4.7 1.88755 -0.00196658 7.20393e-08 -1.63055e-24
12.6845 4.7 -1.88755 -0.00195332 5.83534e-08 1.06184e-22
12.6845 4.7 1.88755 -0.00195332 5.83534e-08 1.06184e-22
12.4621 4.7 -1.88755 -0.0019396 4.94306e-08 1.04607e-22
12.4621 4.7 1.88755 -0.0019396 4.94306e-08 1.04607e-22
12.2349 4.7 -1.88755 -0.00192572 4.26762e-08 1.04686e-22
12.2349 4.7 1.88755 -0.00192572 4.26762e-08 1.04686e-22
12.0027 4.7 -1.88755 -0.00191184 3.37461e-08 8.17249e-25
12.0027 4.7 1.88755 -0.00191184 3.37461e-08 8.17249e-25
11.7655 4.7 -1.88755 -0.00189779 2.21425e-08 -1.04958e-22
11.7655 4.7 1.88755 -0.00189779 2.21425e-08 -1.04958e-22
11.5232 4.7 -1.88755 -0.00188381 1.09023e-08 -1.23783e-24
11.5232 4.7 1.88755 -0.00188381 1.09023e-08 -1.23783e-24
11.2755 4.7 -1.88755 -0.00186998 -4.1558e-09 4.1052e-25
11.2755 4.7 1.88755 -0.00186998 -4.1558e-09 4.1052e-25
11.0226 4.7 -1.88755 -0.00185639 -1.94272e-08 0
11.0226 4.7 1.88755 -0.00185639 -1.94272e-08 0
10.7641 4.7 -1.88755 -0.00184333 -3.63562e-08 0
10.7641 4.7 1.88755 -0.00184333 -3.63562e-08 0
10.5 4.7 -1.88755 -0.00183089 -5.56522e-08 0
10.5 4.7 1.88755 -0.00183089 -5.56522e-08 0
10.2359 4.7 -1.88755 -0.00181926 -7.92756e-08 0
10.2359 4.7 1.88755 -0.00181926 -7.92756e-08 0
9.97744 4.7 -1.88755 -0.00180829 -1.09091e-07 -2.27119e-25
9.97744 4.7 1.88755 -0.00180829 -1.09091e-07 -2.27119e-25
9.72445 4.7 -1.88755 -0.00179763 -1.43993e-07 -1.20039e-22
9.72445 4.7 1.88755 -0.00179763 -1.43993e-07 -1.20039e-22
9.47684 4.7 -1.88755 -0.00178695 -1.8217e-07 1.25835e-22
9.47684 4.7 1.88755 -0.00178695 -1.8217e-07 1.25835e-22
9.2345 4.7 -1.88755 -0.00177592 -2.25268e-07 1.31643e-22
9.2345 4.7 1.88755 -0.00177592 -2.25268e-07 1.31643e-22
8.9973 4.7 -1.88755 -0.00176417 -2.72389e-07 1.0884e-24
8.9973 4.7 1.88755 -0.00176417 -2.72389e-07 1.0884e-24
8.76514 4.7 -1.88755 -0.00175158 -3.22636e-07 -1.11295e-24
8.76514 4.7 1.88755 -0.00175158 -3.22636e-07 -1.11295e-24
8.53792 4.7 -1.88755 -0.00173815 -3.72282e-07 1.19102e-24
8.53792 4.7 1.88755 -0.00173815 -3.72282e-07 1.19102e-24
8.31552 4.7 -1.88755 -0.00172409 -4.2155e-07 2.8075e-26
8.31552 4.7 1.88755 -0.00172409 -4.2155e-07 2.8075e-26
8.09785 4.7 -1.88755 -0.00170955 -4.70578e-07 -2.57714e-24
8.09785 4.7 1.88755 -0.00170955 -4.70578e-07 -2.57714e-24
7.8848 4.7 -1.88755 -0.00169479 -5.18212e-07 -1.69784e-22
7.8848 4.7 1.88755 -0.00169479 -5.18212e-07 -1.69784e-22
7.67629 4.7 -1.88755 -0.00168034 -5.60759e-07 -1.3938e-24
7.67629 4.7 1.88755 -0.00168034 -5.60759e-07 -1.3938e-24
7.4722 4.7 -1.88755 -0.00166663 -6.03316e-07 -9.58469e-23
7.4722 4.7 1.88755 -0.00166663 -6.03316e-07 -9.58469e-23
7.27245 4.7 -1.88755 -0.00165353 -6.48969e-07 3.08503e-24
7.27245 4.7 1.88755 -0.00165353 -6.48969e-07 3.08503e-24
7.07694 4.7 -1.88755 -0.00164105 -6.94966e-07 -1.59493e-24
7.07694 4.7 1.88755 -0.00164105 -6.94966e-07 -1.59493e-24
6.88558 4.7 -1.88755 -0.0016292 -7.42085e-07 1.07978e-22
6.88558 4.7 1.88755 -0.0016292 -7.42085e-07 1.07978e-22
6.6983 4.7 -1.88755 -0.00161793 -7.91713e-07 0
6.6983 4.7 1.88755 -0.00161793 -7.91713e-07 0
6.51499 4.7 -1.88755 -0.00160724 -8.41395e-07 1.18151e-22
6.51499 4.7 1.88755 -0.00160724 -8.41395e-07 1.18151e-22
6.33558 4.7 -1.88755 -0.00159712 -8.94539e-07 -1.21645e-22
6.33558 4.7 1.88755 -0.00159712 -8.94539e-07 -1.21645e-22
6.15998 4.7 -1.88755 -0.00158751 -9.46972e-07 1.27309e-22
6.15998 4.7 1.88755 -0.00158751 -9.46972e-07 1.27309e-22
5.98811 4.7 -1.88755 -0.00157848 -1.00114e-06 -1.35284e-22
5.98811 4.7 1.88755 -0.00157848 -1.00114e-06 -1.35284e-22
5.81989 4.7 -1.88755 -0.00156981 -1.05804e-06 0
5.81989 4.7 1.88755 -0.00156981 -1.05804e-06 0
5.65525 4.7 -1.88755 -0.00156156 -1.11399e-06 -1.48102e-22
5.65525 4.7 1.88755 -0.00156156 -1.11399e-06 -1.48102e-22
5.4941 4.7 -1.88755 -0.00155395 -1.16815e-06 -2.45067e-24
5.4941 4.7 1.88755 -0.00155395 -1.16815e-06 -2.45067e-24
5.33638 4.7 -1.88755 -0.00154715 -1.22051e-06 5.06918e-24
5.33638 4.7 1.88755 -0.00154715 -1.22051e-06 5.06918e-24
5.18201 4.7 -1.88755 -0.00154134 -1.27093e-06 1.6976e-22
5.18201 4.7 1.88755 -0.00154134 -1.27093e-06 1.6976e-22
5.03092 4.7 -1.88755 -0.00153651 -1.32278e-06 1.74841e-22
5.03092 4.7 1.88755 -0.00153651 -1.32278e-06 1.74841e-22
4.88305 4.7 -1.88755 -0.00153254 -1.37465e-06 0
4.88305 4.7 1.88755 -0.00153254 -1.37465e-06 0
4.73831 4.7 -1.88755 -0.00152966 -1.42224e-06 0
4.73831 4.7 1.88755 -0.00152966 -1.42224e-06 0
4.59665 4.7 -1.88755 -0.00152822 -1.46366e-06 -3.21868e-24
4.59665 4.7 1.88755 -0.00152822 -1.46366e-06 -3.21868e-24
4.458 4.7 -1.88755 -0.00152854 -1.50315e-06 6.65749e-24
4.458 4.7 1.88755 -0.00152854 -1.50315e-06 6.65749e-24
4.32229 4.7 -1.88755 -0.00153038 -1.54339e-06 1.07993e-22
4.32229 4.7 1.88755 -0.00153038 -1.54339e-06 1.07993e-22
4.18947 4.7 -1.88755 -0.00153373 -1.58225e-06 1.16606e-22
4.18947 4.7 1.88755 -0.00153373 -1.58225e-06 1.16606e-22
4.05947 4.7 -1.88755 -0.00153877 -1.61467e-06 0
4.05947 4.7 1.88755 -0.00153877 -1.61467e-06 0
3.93223 4.7 -1.88755 -0.00154593 -1.64044e-06 0
3.93223 4.7 1.88755 -0.00154593 -1.64044e-06 0
3.8077 4.7 -1.88755 -0.0015554 -1.66256e-06 -1.33569e-22
3.8077 4.7 1.88755 -0.0015554 -1.66256e-06 -1.33569e-22
3.68581 4.7 -1.88755 -0.00156706 -1.68509e-06 4.41936e-24
3.68581 4.7 1.88755 -0.00156706 -1.68509e-06 4.41936e-24
3.56652 4.7 -1.88755 -0.00158075 -1.70412e-06 1.46286e-22
3.56652 4.7 1.88755 -0.00158075 -1.70412e-06 1.46286e-22
3.44975 4.7 -1.88755 -0.00159676 -1.71444e-06 -4.72362e-24
3.44975 4.7 1.88755 -0.00159676 -1.71444e-06 -4.72362e-24
3.33547 4.7 -1.88755 -0.00161553 -1.71493e-06 0
3.33547 4.7 1.88755 -0.00161553 -1.71493e-06 0
3.22362 4.7 -1.88755 -0.0016373 -1.71115e-06 0
3.22362 4.7 1.88755 -0.0016373 -1.71115e-06 0
3.11414 4.7 -1.88755 -0.00166183 -1.70719e-06 1.749e-22
3.11414 4.7 1.88755 -0.00166183 -1.70719e-06 1.749e-22
3.00699 4.7 -1.88755 -0.00168894 -1.69636e-06 1.82873e-22
3.00699 4.7 1.88755 -0.00168894 -1.69636e-06 1.82873e-22
2.90212 4.7 -1.88755 -0.00171902 -1.67427e-06 0
2.90212 4.7 1.88755 -0.00171902 -1.67427e-06 0
2.79947 4.7 -1.88755 -0.00175258 -1.63852e-06 0
2.79947 4.7 1.88755 -0.00175258 -1.63852e-06 0
2.69901 4.7 -1.88755 -0.00178969 -1.60281e-06 -6.60305e-24
2.69901 4.7 1.88755 -0.00178969 -1.60281e-06 -6.60305e-24
2.60068 4.7 -1.88755 -0.00182982 -1.5631e-06 6.74592e-24
2.60068 4.7 1.88755 -0.00182982 -1.5631e-06 6.74592e-24
2.50444 4.7 -1.88755 -0.00187319 -1.50775e-06 0
2.50444 4.7 1.88755 -0.00187319 -1.50775e-06 0
2.41024 4.7 -1.88755 -0.00192056 -1.43574e-06 -3.76497e-24
2.41024 4.7 1.88755 -0.00192056 -1.43574e-06 -3.76497e-24
2.31805 4.7 -1.88755 -0.00197206 -1.35564e-06 3.84618e-24
2.31805 4.7 1.88755 -0.00197206 -1.35564e-06 3.84618e-24
2.22782 4.7 -1.88755 -0.00202747 -1.27271e-06 1.29932e-22
2.22782 4.7 1.88755 -0.00202747 -1.27271e-06 1.29932e-22
2.1395 4.7 -1.88755 -0.0020866 -1.17489e-06 0
2.1395 4.7 1.88755 -0.0020866 -1.17489e-06 0
2.05306 4.7 -1.88755 -0.00215006 -1.05832e-06 1.46074e-22
2.05306 4.7 1.88755 -0.00215006 -1.05832e-06 1.46074e-22
1.96845 4.7 -1.88755 -0.00221827 -9.25343e-07 -9.23741e-24
1.96845 4.7 1.88755 -0.00221827 -9.25343e-07 -9.23741e-24
1.88565 4.7 -1.88755 -0.00229123 -7.86786e-07 4.76807e-24
1.88565 4.7 1.88755 -0.00229123 -7.86786e-07 4.76807e-24
1.8046 4.7 -1.88755 -0.00236861 -6.378e-07 0
1.8046 4.7 1.88755 -0.00236861 -6.378e-07 0
1.72528 4.7 -1.88755 -0.00245057 -4.69e-07 1.72976e-22
1.72528 4.7 1.88755 -0.00245057 -4.69e-07 1.72976e-22
1.64764 4.7 -1.88755 -0.00253771 -2.79826e-07 -5.40802e-24
1.64764 4.7 1.88755 -0.00253771 -2.79826e-07 -5.40802e-24
1.57165 4.7 -1.88755 -0.00263015 -7.80124e-08 1.82157e-22
1.57165 4.7 1.88755 -0.00263015 -7.80124e-08 1.82157e-22
1.49727 4.7 -1.88755 -0.00272775 1.30455e-07 0
1.49727 4.7 1.88755 -0.00272775 1.30455e-07 0
1.42448 4.7 -1.88755 -0.00283016 3.54104e-07 3.11781e-24
1.42448 4.7 1.88755 -0.00283016 3.54104e-07 3.11781e-24
1.35323 4.7 -1.88755 -0.00293779 5.97568e-07 -3.18436e-24
1.35323 4.7 1.88755 -0.00293779 5.97568e-07 -3.18436e-24
1.2835 4.7 -1.88755 -0.00305091 8.5888e-07 1.07034e-22
1.2835 4.7 1.88755 -0.00305091 8.5888e-07 1.07034e-22
1.21524 4.7 -1.88755 -0.00316945 1.12312e-06 1.75542e-24
1.21524 4.7 1.88755 -0.00316945 1.12312e-06 1.75542e-24
1.14844 4.7 -1.88755 -0.00329276 1.3916e-06 -1.79279e-24