/*--------------------------------*- C++ -*----------------------------------*\
| =========                 |                                                 |
| \\      /  F ield         | OpenFOAM: The Open Source CFD Toolbox           |
|  \\    /   O peration     | Version:  2412                                  |
|   \\  /    A nd           | Website:  www.openfoam.com                      |
|    \\/     M anipulation  |                                                 |
\*---------------------------------------------------------------------------*/
FoamFile
{
    version     2.0;
    format      ascii;
    arch        "LSB;label=32;scalar=64";
    class       volScalarField;
    location    "2000";
    object      nut;
}
// * * * * * * * * * * * * * * * * * * * * * * * * * * * * * * * * * * * * * //

dimensions      [0 2 -1 0 0 0 0];

internalField   nonuniform List<scalar> 
32240
(
1.76112e-08
1.69179e-06
1.35404e-05
5.51222e-05
0.00015276
0.000305401
0.000493915
0.00069966
0.000911068
0.00112321
0.00133495
0.00154671
0.00175929
0.0019734
0.00218953
0.002408
0.00262902
0.00285291
0.00308022
0.00331215
0.00355095
0.00380093
0.00407048
0.00437851
0.00479262
0.00536834
0.00609294
0.00695043
0.00792339
0.00891251
0.00977661
0.0104628
0.0109092
0.0110113
0.0108484
0.0104995
0.0100226
0.00946056
0.00884574
0.00820312
0.00755213
0.00690789
0.00628191
0.0056826
0.00511572
0.00458468
0.00409099
0.00363459
0.00321424
0.00282782
0.00247253
0.00214512
0.001842
0.00155931
0.00129321
0.00104036
0.000799274
0.000572345
0.00036831
0.000201957
8.78058e-05
2.85551e-05
6.48895e-06
7.32686e-07
8.12689e-09
1.8074e-08
1.73936e-06
1.38388e-05
5.60216e-05
0.000154728
0.000308622
0.000498298
0.000705034
0.000917319
0.00113031
0.00134295
0.00155572
0.00176945
0.00198489
0.00220259
0.00242291
0.00264612
0.00287261
0.00310302
0.00333866
0.00358196
0.0038376
0.004115
0.00443727
0.00489407
0.00550776
0.00626877
0.00716075
0.00816952
0.00917484
0.0100516
0.0107468
0.0111964
0.0112932
0.0111189
0.010754
0.0102582
0.0096753
0.00903855
0.00837364
0.00770068
0.00703531
0.0063895
0.00577205
0.00518893
0.00464366
0.00413776
0.00367107
0.0032422
0.00284883
0.00248798
0.00215619
0.00184966
0.00156436
0.00129629
0.00104201
0.000799869
0.000572198
0.000367727
0.000201256
8.72654e-05
2.82998e-05
6.41421e-06
7.22051e-07
7.9884e-09
1.82352e-08
1.7591e-06
1.39973e-05
5.65972e-05
0.000156068
0.000310731
0.000500986
0.000708112
0.000920684
0.00113394
0.00134689
0.00156003
0.00177422
0.00199023
0.00220861
0.00242974
0.00265395
0.00288163
0.00311348
0.00335086
0.00359628
0.00385454
0.00413544
0.00446415
0.00493883
0.00556782
0.00634369
0.00725
0.00827442
0.00928695
0.0101698
0.0108694
0.0113207
0.0114154
0.011236
0.0108641
0.0103598
0.00976754
0.00912101
0.0084462
0.0077635
0.00708881
0.00643432
0.00580896
0.00521879
0.0046674
0.00415626
0.00368518
0.0032527
0.0028564
0.00249322
0.0021596
0.00185164
0.00156522
0.00129626
0.00104126
0.000798562
0.000570551
0.000366047
0.000199928
8.65445e-05
2.80682e-05
6.36852e-06
7.17968e-07
7.95661e-09
1.85136e-08
1.7864e-06
1.41764e-05
5.7204e-05
0.00015745
0.000312976
0.000504013
0.000711818
0.000925028
0.00113896
0.00135267
0.0015667
0.00178195
0.00199923
0.00221913
0.00244209
0.0026685
0.00289887
0.00313405
0.00337558
0.00362628
0.00389144
0.00418193
0.0045271
0.00502964
0.00568425
0.00648531
0.00741568
0.00846432
0.00949289
0.0103882
0.0110964
0.0115511
0.0116419
0.0114538
0.0110693
0.0105501
0.00994132
0.00927729
0.00858463
0.00788427
0.00719256
0.0065221
0.00588212
0.00527889
0.00471607
0.00419513
0.0037158
0.00327647
0.00287456
0.00250681
0.00216952
0.00185864
0.00156996
0.00129926
0.00104293
0.000799238
0.000570519
0.00036558
0.000199327
8.60902e-05
2.78696e-05
6.31485e-06
7.1091e-07
7.86851e-09
1.87784e-08
1.81665e-06
1.43668e-05
5.78076e-05
0.000158776
0.000315064
0.000506731
0.000715017
0.00092862
0.00114292
0.00135703
0.00157151
0.00178729
0.00200518
0.00222581
0.00244965
0.00267713
0.00290883
0.0031457
0.00338945
0.00364316
0.00391259
0.00420974
0.00456851
0.00508813
0.00575895
0.00657695
0.00752454
0.00859198
0.00963
0.010533
0.011247
0.0117044
0.011793
0.0115991
0.0112061
0.0106766
0.0100563
0.00938014
0.00867519
0.0079627
0.00725937
0.00657805
0.00592817
0.00531613
0.00474565
0.00421817
0.00373338
0.00328956
0.00288403
0.00251343
0.00217393
0.00186136
0.00157138
0.00129969
0.00104261
0.000798319
0.0005692
0.000364169
0.00019818
8.54364e-05
2.76375e-05
6.26138e-06
7.04849e-07
7.80205e-09
1.90494e-08
1.84563e-06
1.45524e-05
5.84492e-05
0.000160268
0.000317509
0.000510026
0.000719031
0.000933293
0.00114828
0.00136315
0.00157852
0.00179536
0.00201451
0.00223663
0.00246225
0.00269187
0.00292616
0.00316625
0.00341406
0.00367306
0.00394975
0.00425783
0.00463802
0.00518066
0.00587416
0.00671417
0.00768346
0.00877331
0.00982693
0.0107424
0.0114651
0.0119259
0.0120111
0.0118088
0.0114039
0.0108601
0.0102239
0.00953087
0.00880867
0.00807907
0.00735924
0.00666241
0.00599833
0.00537359
0.00479201
0.00425503
0.00376224
0.0033118
0.00290088
0.00252594
0.00218298
0.00186769
0.00157558
0.0013022
0.00104379
0.000798524
0.000568732
0.000363336
0.000197336
8.48804e-05
2.74191e-05
6.20724e-06
6.98298e-07
7.72595e-09
1.92844e-08
1.86839e-06
1.47236e-05
5.9044e-05
0.0001616
0.000319606
0.00051276
0.00072227
0.000936965
0.00115238
0.00136771
0.00158362
0.00180107
0.00202092
0.00224386
0.00247043
0.00270118
0.00293684
0.00317864
0.00342868
0.00369078
0.00397211
0.00428818
0.00468712
0.00524861
0.00596109
0.00681928
0.00780732
0.00891704
0.00998253
0.0109076
0.0116373
0.0121014
0.0121844
0.0119757
0.0115614
0.0110059
0.0103568
0.00965011
0.00891394
0.00817053
0.0074374
0.00672811
0.00605264
0.00541775
0.00482731
0.00428276
0.00378362
0.00332794
0.00291276
0.00253442
0.00218878
0.00187141
0.00157769
0.0013031
0.00104378
0.000797809
0.000567538
0.000361993
0.000196208
8.42198e-05
2.71783e-05
6.15017e-06
6.91623e-07
7.65044e-09
1.95827e-08
1.902e-06
1.49359e-05
5.9734e-05
0.000163187
0.000322221
0.000516313
0.000726632
0.000942076
0.00115826
0.00137446
0.00159136
0.00180996
0.00203116
0.00225566
0.00248404
0.00271691
0.00295506
0.00319983
0.00345352
0.00372028
0.00400804
0.00433439
0.00475696
0.00534125
0.00607609
0.00695542
0.00796464
0.00909604
0.010177
0.0111144
0.0118529
0.0123207
0.0124005
0.0121837
0.0117576
0.011188
0.0105232
0.00979969
0.00904635
0.00828588
0.00753628
0.0068115
0.00612186
0.00547431
0.00487281
0.0043188
0.00381171
0.00334946
0.00292894
0.00254631
0.00219728
0.00187724
0.00158145
0.00130525
0.00104466
0.000797734
0.000566807
0.000360938
0.000195216
8.35975e-05
2.69419e-05
6.09282e-06
6.84813e-07
7.57259e-09
1.98718e-08
1.93392e-06
1.5129e-05
6.03709e-05
0.000164595
0.000324454
0.000519259
0.000730168
0.000946141
0.00116286
0.00137965
0.00159722
0.00181661
0.00203871
0.00226425
0.00249383
0.0027281
0.0029679
0.00321464
0.00347079
0.00374081
0.00403334
0.00436815
0.00481281
0.00541792
0.00617322
0.00707209
0.0081013
0.009253
0.0103475
0.0112958
0.0120423
0.0125139
0.0125914
0.0123679
0.0119315
0.0113494
0.0106705
0.00993205
0.00916342
0.00838776
0.0076235
0.00688495
0.0061827
0.00552389
0.00491255
0.00435012
0.00383596
0.00336788
0.00294261
0.00255617
0.00220413
0.00188174
0.00158413
0.00130652
0.00104486
0.000797118
0.000565646
0.00035958
0.000194054
8.29098e-05
2.66895e-05
6.0326e-06
6.77733e-07
7.49214e-09
2.01363e-08
1.96007e-06
1.53193e-05
6.10656e-05
0.000166253
0.000327212
0.000523028
0.000734819
0.000951619
0.0011692
0.00138695
0.00160563
0.0018263
0.00204989
0.00227715
0.00250873
0.00274529
0.00298773
0.00323755
0.00349733
0.00377181
0.00407033
0.00441515
0.00488494
0.005513
0.00629042
0.00721027
0.00826075
0.00943354
0.0105435
0.0115044
0.0122599
0.0127355
0.01281
0.0125785
0.0121304
0.0115341
0.0108392
0.0100838
0.00929781
0.00850484
0.00772383
0.00696954
0.00625286
0.00558116
0.00495857
0.00438652
0.00386427
0.00338951
0.00295881
0.00256802
0.00221253
0.00188744
0.00158773
0.0013085
0.00104557
0.00079687
0.000564735
0.000358365
0.00019295
8.2233e-05
2.64362e-05
5.97154e-06
6.70518e-07
7.40995e-09
2.0384e-08
1.98318e-06
1.54972e-05
6.17128e-05
0.000167743
0.000329606
0.000526213
0.000738676
0.000956095
0.00117432
0.00139279
0.00161231
0.00183396
0.00205871
0.00228734
0.00252052
0.00275896
0.00300364
0.00325613
0.00351914
0.0037977
0.00410186
0.00445648
0.00494974
0.00559911
0.00639742
0.00733755
0.00840901
0.00960208
0.0107267
0.0116996
0.0124639
0.0129437
0.0130158
0.0127771
0.0123182
0.0117085
0.0109987
0.0102273
0.00942484
0.0086155
0.00781867
0.00704947
0.00631914
0.00563522
0.00500196
0.00442077
0.00389085
0.00340974
0.00297387
0.00257893
0.00222016
0.0018925
0.00159079
0.00131002
0.0010459
0.000796295
0.000563555
0.000356953
0.00019173
8.15095e-05
2.61704e-05
5.90798e-06
6.63038e-07
7.32491e-09
2.07007e-08
2.01771e-06
1.57157e-05
6.24503e-05
0.000169448
0.000332423
0.000530055
0.000743417
0.000961687
0.0011808
0.00140028
0.00162097
0.001844
0.00207036
0.00230087
0.00253625
0.00277727
0.00302498
0.00328106
0.00354839
0.00383231
0.00414369
0.00451063
0.00502771
0.00569876
0.00651853
0.00747968
0.00857296
0.00978662
0.010927
0.0119128
0.0126865
0.0131706
0.01324
0.0129934
0.0125226
0.0118985
0.0111724
0.0103837
0.00956337
0.00873624
0.00792217
0.00713674
0.00639153
0.00569431
0.00504943
0.0044583
0.00392003
0.00343202
0.00299053
0.00259109
0.00222874
0.00189828
0.00159441
0.00131195
0.00104653
0.000795924
0.0005625
0.0003556
0.000190524
8.07824e-05
2.59008e-05
5.84313e-06
6.55385e-07
7.23783e-09
2.09959e-08
2.04844e-06
1.5931e-05
6.31519e-05
0.000171011
0.000334928
0.000533398
0.000747481
0.000966426
0.00118625
0.00140654
0.00162818
0.00185233
0.00208002
0.00231211
0.00254939
0.00279269
0.00304316
0.00330264
0.00357425
0.00386375
0.00418306
0.00456411
0.00510246
0.00579369
0.00663427
0.00761636
0.00873176
0.00996556
0.0111214
0.0121201
0.0129032
0.013392
0.0134591
0.013205
0.0127229
0.0120847
0.0113428
0.0105371
0.00969938
0.00885484
0.00802388
0.00722254
0.00646272
0.00575243
0.00509612
0.0044952
0.00394869
0.00345387
0.00300684
0.00260293
0.00223705
0.00190383
0.0015978
0.00131367
0.00104696
0.000795371
0.000561283
0.000354118
0.000189236
8.0019e-05
2.56207e-05
5.77607e-06
6.47489e-07
7.14803e-09
2.12838e-08
2.07731e-06
1.61176e-05
6.38654e-05
0.000172723
0.000337756
0.000537242
0.000752219
0.000972015
0.00119274
0.00141405
0.00163687
0.00186241
0.00209174
0.00232575
0.00256528
0.00281125
0.00306491
0.00332827
0.00360473
0.0039006
0.00422911
0.00462715
0.0051862
0.00589778
0.00675963
0.0077633
0.00890154
0.0101557
0.0113277
0.0123399
0.013133
0.0136265
0.0136911
0.013429
0.0129349
0.0122819
0.0115233
0.0106998
0.00984356
0.00898059
0.00813176
0.00731355
0.00653826
0.00581412
0.00514571
0.00453443
0.0039792
0.00347717
0.00302426
0.00261563
0.00224601
0.00190985
0.00160154
0.00131564
0.00104755
0.000794915
0.000560107
0.000352638
0.000187931
7.92415e-05
2.53346e-05
5.70743e-06
6.394e-07
7.05601e-09
2.15242e-08
2.09727e-06
1.62932e-05
6.45607e-05
0.000174344
0.000340374
0.000540748
0.000756498
0.000977029
0.00119854
0.00142074
0.00164461
0.00187138
0.00210216
0.00233789
0.00257945
0.00282785
0.00308444
0.00335143
0.00363252
0.00393464
0.00427255
0.00468893
0.00526783
0.00599947
0.00688267
0.00790825
0.0090699
0.0103442
0.0115325
0.0125584
0.0133617
0.0138604
0.0139226
0.0136529
0.0131469
0.0124793
0.0117041
0.0108628
0.00998815
0.00910678
0.00824007
0.00740498
0.00661417
0.00587615
0.00519559
0.00457389
0.0040099
0.0035006
0.00304177
0.00262838
0.00225498
0.00191585
0.00160523
0.00131754
0.00104806
0.000794355
0.000558823
0.000351062
0.000186562
7.84338e-05
2.50393e-05
5.63671e-06
6.31075e-07
6.96137e-09
2.18868e-08
2.13701e-06
1.65503e-05
6.53565e-05
0.000176118
0.000343262
0.000544665
0.000761332
0.000982747
0.0012052
0.00142847
0.00165358
0.00188181
0.00211428
0.00235199
0.00259585
0.00284694
0.00310672
0.00337756
0.00366349
0.00397208
0.00431984
0.00475621
0.00535541
0.00610759
0.00701259
0.00806058
0.00924623
0.0105409
0.0117461
0.0127863
0.0136001
0.014104
0.014164
0.0138862
0.013368
0.0126852
0.0118927
0.0110328
0.0101391
0.00923855
0.0083532
0.00750051
0.00669352
0.005941
0.00524776
0.00461519
0.00404205
0.00352518
0.00306016
0.0026418
0.00226444
0.00192221
0.00160918
0.00131961
0.00104866
0.000793844
0.000557547
0.000349467
0.000185165
7.76086e-05
2.47372e-05
5.56422e-06
6.22535e-07
6.86426e-09
2.2214e-08
2.17126e-06
1.67654e-05
6.61113e-05
0.000177841
0.000346056
0.000548432
0.000765963
0.000988214
0.00121156
0.00143585
0.00166215
0.00189177
0.00212587
0.00236547
0.00261154
0.00286521
0.00312805
0.00340259
0.00369319
0.0040081
0.0043657
0.0048228
0.00544246
0.00621534
0.00714236
0.00821313
0.00942335
0.0107385
0.0119609
0.0130156
0.0138404
0.0143499
0.0144077
0.0141222
0.0135917
0.0128936
0.0120838
0.0112053
0.0102923
0.00937234
0.00846813
0.0075976
0.00677421
0.006007
0.00530089
0.00465728
0.00407483
0.00355025
0.00307892
0.00265548
0.00227409
0.00192869
0.00161318
0.00132169
0.00104924
0.000793277
0.000556193
0.000347793
0.000183709
7.67548e-05
2.44262e-05
5.48973e-06
6.13766e-07
6.76458e-09
2.25058e-08
2.19815e-06
1.69775e-05
6.68918e-05
0.000179681
0.000349086
0.000552564
0.000771089
0.00099431
0.0012187
0.00144417
0.00167184
0.00190305
0.00213899
0.00238072
0.00262923
0.00288571
0.00315183
0.00343027
0.0037257
0.00404707
0.0044148
0.0048937
0.00553435
0.00632827
0.00727749
0.00837134
0.00960656
0.0109425
0.0121826
0.0132524
0.0140885
0.0146039
0.0146596
0.014366
0.0138229
0.0131092
0.0122816
0.0113838
0.0104509
0.00951093
0.00858724
0.00769827
0.00685791
0.00607549
0.00535606
0.00470101
0.00410893
0.00357634
0.00309848
0.00266976
0.00228418
0.00193548
0.0016174
0.00132391
0.0010499
0.000792729
0.000554819
0.000346077
0.000182213
7.5879e-05
2.41077e-05
5.4134e-06
6.04781e-07
6.66239e-09
2.28617e-08
2.23552e-06
1.72128e-05
6.76949e-05
0.000181509
0.000352078
0.000556647
0.000776166
0.00100036
0.0012258
0.00145246
0.00168152
0.00191433
0.00215213
0.00239599
0.00264697
0.0029063
0.00317574
0.00345812
0.00375842
0.00408631
0.00446443
0.00496557
0.00562746
0.00644278
0.007414
0.0085311
0.00979182
0.0111488
0.0124071
0.0134925
0.0143404
0.0148619
0.0149157
0.0146141
0.0140584
0.0133289
0.0124832
0.011566
0.0106128
0.00965251
0.00870898
0.00780123
0.00694357
0.00614563
0.0054126
0.00474587
0.00414392
0.00360314
0.00311858
0.00268445
0.00229456
0.00194247
0.00162174
0.00132619
0.00105056
0.000792152
0.000553388
0.000344295
0.000180664
7.49771e-05
2.37806e-05
5.33509e-06
5.95566e-07
6.55765e-09
2.32058e-08
2.27021e-06
1.7465e-05
6.85326e-05
0.000183428
0.000355251
0.00056101
0.000781627
0.00100691
0.00123352
0.0014615
0.00169209
0.00192668
0.00216653
0.00241275
0.00266644
0.00292887
0.00320191
0.00348852
0.00379398
0.00412872
0.00451779
0.00504138
0.00572458
0.00656152
0.00755469
0.00869534
0.00998202
0.0113606
0.0126377
0.0137391
0.0145992
0.0151272
0.0151791
0.0148694
0.0143008
0.0135551
0.0126909
0.0117537
0.0107798
0.0097986
0.00883467
0.00790757
0.00703209
0.00621815
0.00547109
0.00479231
0.00418019
0.00363095
0.00313945
0.00269972
0.00230537
0.00194977
0.00162629
0.00132859
0.00105129
0.000791587
0.000551931
0.000342467
0.000179074
7.40532e-05
2.34458e-05
5.25482e-06
5.86117e-07
6.45025e-09
2.35437e-08
2.30359e-06
1.76808e-05
6.9346e-05
0.000185352
0.000358436
0.000565389
0.000787103
0.00101347
0.00124126
0.00147059
0.00170274
0.00193915
0.00218112
0.00242979
0.0026863
0.002952
0.00322884
0.00351994
0.00383091
0.00417296
0.0045738
0.00511936
0.00582349
0.00668191
0.00769724
0.00886183
0.010175
0.0115756
0.0128721
0.0139901
0.0148628
0.0153976
0.0154478
0.01513
0.0145485
0.0137864
0.0129035
0.0119459
0.0109508
0.00994833
0.00896356
0.0080167
0.00712299
0.00629269
0.00553126
0.00484013
0.00421756
0.00365963
0.003161
0.00271551
0.00231655
0.00195732
0.001631
0.00133109
0.00105205
0.000790999
0.000550414
0.000340566
0.000177425
7.31009e-05
2.31021e-05
5.17255e-06
5.76441e-07
6.3403e-09
2.38209e-08
2.32526e-06
1.78823e-05
7.01678e-05
0.00018736
0.000361799
0.000570015
0.000792894
0.00102041
0.00124945
0.0014802
0.00171402
0.00195237
0.0021966
0.0024479
0.00270745
0.00297668
0.00325762
0.0035536
0.00387056
0.0042206
0.00463448
0.00520129
0.00592596
0.00680575
0.00784337
0.00903223
0.0103724
0.0117956
0.0131121
0.0142472
0.015133
0.0156749
0.0157235
0.0153976
0.0148028
0.014024
0.013122
0.0121437
0.0111269
0.0101025
0.00909639
0.00812922
0.00721678
0.00636964
0.00559344
0.00488959
0.00425626
0.00368936
0.00318337
0.00273191
0.00232819
0.0019652
0.00163594
0.00133372
0.00105287
0.000790419
0.000548863
0.000338611
0.000175728
7.21246e-05
2.27505e-05
5.08832e-06
5.66534e-07
6.22771e-09
2.42195e-08
2.36777e-06
1.81424e-05
7.10585e-05
0.000189445
0.000365217
0.000574718
0.000798769
0.00102746
0.00125776
0.00148996
0.00172547
0.0019658
0.00221235
0.00246635
0.00272905
0.00300194
0.0032872
0.00358833
0.0039117
0.00427042
0.00469869
0.00528579
0.00603054
0.00693165
0.0079918
0.00920533
0.010573
0.0120194
0.0133565
0.0145094
0.0154088
0.0159581
0.0160053
0.0156713
0.0150632
0.0142674
0.0133459
0.0123464
0.0113075
0.0102609
0.00923285
0.0082449
0.00731327
0.00644889
0.00565753
0.00494062
0.00429623
0.00372011
0.00320653
0.00274892
0.00234027
0.00197339
0.00164108
0.00133647
0.00105374
0.000789834
0.000547263
0.000336587
0.000173975
7.11207e-05
2.23901e-05
5.00211e-06
5.56399e-07
6.11256e-09
2.42766e-08
2.36023e-06
1.81729e-05
7.17679e-05
0.000191437
0.000368668
0.00057949
0.000804786
0.00103471
0.00126636
0.0015001
0.00173739
0.00197982
0.00222881
0.00248564
0.00275164
0.00302837
0.00331814
0.00362468
0.00395483
0.00432285
0.00476681
0.00537348
0.00613807
0.00706052
0.00814346
0.00938207
0.0107778
0.0122481
0.0136065
0.0147777
0.0156911
0.0162482
0.0162941
0.0159519
0.0153302
0.0145173
0.0135758
0.0125548
0.0114933
0.0104238
0.00937336
0.00836409
0.00741277
0.00653066
0.00572372
0.00499339
0.00433761
0.00375198
0.00323057
0.0027666
0.00235286
0.00198194
0.00164646
0.00133937
0.00105469
0.000789259
0.000545626
0.000334506
0.000172171
7.00923e-05
2.20215e-05
4.91385e-06
5.46024e-07
5.99471e-09
1.70672e-08
1.23554e-06
1.38403e-05
6.89527e-05
0.000192159
0.000371673
0.000584124
0.000810735
0.00104195
0.00127499
0.00151033
0.00174948
0.00199408
0.0022456
0.00250537
0.00277477
0.00305546
0.00334988
0.00366201
0.00399918
0.00437692
0.00483758
0.00546336
0.0062477
0.00719165
0.0082977
0.00956185
0.0109861
0.012481
0.0138614
0.0150515
0.0159795
0.0165448
0.0165895
0.0162391
0.0156038
0.0147733
0.0138117
0.0127686
0.011684
0.0105912
0.00951785
0.00848675
0.00751524
0.00661495
0.00579203
0.0050479
0.00438042
0.00378499
0.0032555
0.00278496
0.00236595
0.00199085
0.00165209
0.00134242
0.00105571
0.000788687
0.000543943
0.000332354
0.000170309
6.90361e-05
2.16442e-05
4.82359e-06
5.35419e-07
5.87425e-09
1.70945e-08
1.22972e-06
1.38668e-05
6.97148e-05
0.000194266
0.000375207
0.000589014
0.000816898
0.00104942
0.0012839
0.00152091
0.00176202
0.0020089
0.00226307
0.00252592
0.00279885
0.00308365
0.00338286
0.00370073
0.00404512
0.00443289
0.00491103
0.00555575
0.0063599
0.00732555
0.00845504
0.00974519
0.0111986
0.0127187
0.0141218
0.0153315
0.0162745
0.0168483
0.0168921
0.0165334
0.0158842
0.015036
0.0140538
0.0129882
0.0118801
0.0107634
0.00966659
0.00861311
0.00762089
0.00670194
0.0058626
0.00510428
0.00442475
0.00381923
0.00328141
0.00280407
0.0023796
0.00200017
0.001658
0.00134565
0.00105681
0.000788133
0.000542224
0.00033014
0.000168393
6.79542e-05
2.12586e-05
4.73133e-06
5.24579e-07
5.75113e-09
1.72065e-08
1.2341e-06
1.39833e-05
7.05519e-05
0.000196425
0.000378831
0.000594038
0.000823246
0.00105712
0.0012931
0.00153184
0.00177498
0.00202423
0.00228115
0.00254716
0.00282375
0.00311276
0.00341688
0.00374062
0.00409235
0.0044904
0.00498655
0.00565019
0.00647428
0.00746186
0.00861518
0.0099318
0.0114149
0.0129611
0.0143875
0.0156173
0.0165759
0.0171587
0.0172017
0.0168347
0.0161716
0.0153053
0.0143022
0.0132137
0.0120816
0.0109405
0.00981963
0.00874322
0.00772976
0.00679168
0.00593547
0.00516259
0.00447066
0.00385474
0.00330831
0.00282396
0.00239383
0.0020099
0.00166419
0.00134905
0.00105801
0.000787597
0.000540465
0.000327858
0.000166418
6.6845e-05
2.08644e-05
4.63705e-06
5.13507e-07
5.62539e-09
1.72621e-08
1.23025e-06
1.40659e-05
7.13752e-05
0.000198623
0.000382546
0.000599204
0.000829792
0.00106508
0.00130264
0.00154321
0.00178848
0.00204021
0.00230001
0.00256934
0.00284973
0.0031431
0.00345229
0.00378203
0.00414126
0.0045498
0.00506433
0.00574697
0.00659114
0.00760089
0.0087784
0.010122
0.0116354
0.0132083
0.0146587
0.0159094
0.0168841
0.0174762
0.0175186
0.0171434
0.0164662
0.0155816
0.0145571
0.0134454
0.0122887
0.0111226
0.00997716
0.00887726
0.00784202
0.00688429
0.00601078
0.00522292
0.00451824
0.0038916
0.00333629
0.00284467
0.00240868
0.00202009
0.0016707
0.00135266
0.00105931
0.00078708
0.000538661
0.000325501
0.00016438
6.57078e-05
2.04615e-05
4.54075e-06
5.02204e-07
5.49706e-09
1.73344e-08
1.22899e-06
1.41829e-05
7.22447e-05
0.000200882
0.000386357
0.000604512
0.000836532
0.00107331
0.00131252
0.00155499
0.00180249
0.00205683
0.00231964
0.00259242
0.00287676
0.00317465
0.00348905
0.00382494
0.00419184
0.00461109
0.00514422
0.00584591
0.00671031
0.00774248
0.00894456
0.0103156
0.0118599
0.0134603
0.0149356
0.0162077
0.017199
0.0178009
0.0178429
0.0174595
0.016768
0.0158648
0.0148188
0.0136832
0.0125015
0.0113099
0.0101393
0.00901533
0.00795776
0.00697988
0.00608858
0.00528534
0.00456754
0.00392987
0.00336539
0.00286626
0.0024242
0.00203076
0.00167754
0.00135647
0.00106072
0.000786591
0.000536822
0.000323077
0.000162284
6.45446e-05
2.00503e-05
4.44247e-06
4.90669e-07
5.3661e-09
1.7488e-08
1.23978e-06
1.43392e-05
7.31636e-05
0.000203208
0.000390273
0.000609977
0.000843494
0.00108182
0.00132277
0.00156726
0.00181711
0.00207419
0.00234015
0.00261655
0.00290501
0.0032076
0.0035274
0.00386964
0.00424439
0.00467459
0.00522641
0.00594721
0.00683198
0.00788678
0.00911382
0.0105128
0.0120886
0.0137173
0.0152181
0.0165123
0.0175209
0.0181329
0.0181747
0.0177833
0.0170773
0.0161553
0.0150872
0.0139275
0.0127202
0.0115025
0.0103062
0.00915758
0.00807712
0.00707856
0.00616901
0.00534995
0.00461865
0.00396961
0.00339566
0.00288876
0.00244041
0.00204195
0.00168474
0.00136052
0.00106226
0.00078614
0.00053495
0.000320583
0.000160127
6.3354e-05
1.96306e-05
4.34217e-06
4.78903e-07
5.23257e-09
1.76702e-08
1.25473e-06
1.45069e-05
7.41096e-05
0.000205592
0.000394292
0.000615598
0.000850671
0.00109063
0.0013334
0.00158
0.00183232
0.00209226
0.00236153
0.00264172
0.00293449
0.00324198
0.00356738
0.00391618
0.00429901
0.00474042
0.00531091
0.0060508
0.00695606
0.00803374
0.00928612
0.0107136
0.0123215
0.0139793
0.0155064
0.0168234
0.0178498
0.0184724
0.0185142
0.0181147
0.0173942
0.0164531
0.0153627
0.0141783
0.012945
0.0117007
0.010478
0.00930414
0.00820021
0.00718044
0.00625216
0.00541685
0.00467167
0.00401091
0.00342719
0.00291225
0.00245737
0.00205368
0.00169233
0.00136483
0.00106394
0.000785737
0.000533048
0.00031802
0.00015791
6.21375e-05
1.92027e-05
4.23989e-06
4.66905e-07
5.09641e-09
1.78169e-08
1.26485e-06
1.46488e-05
7.50533e-05
0.000208029
0.000398425
0.000621396
0.000858091
0.00109975
0.00134443
0.00159325
0.00184817
0.00211113
0.00238388
0.00266804
0.00296532
0.00327792
0.00360916
0.00396475
0.0043559
0.00480882
0.00539784
0.0061568
0.00708263
0.0081834
0.00946152
0.010918
0.0125587
0.0142464
0.0158006
0.017141
0.0181857
0.0188194
0.0188616
0.0184539
0.0177188
0.0167584
0.0156453
0.0144358
0.013176
0.0119045
0.0106549
0.00945517
0.00832718
0.00728565
0.00633814
0.00548615
0.00472668
0.00405385
0.00346005
0.00293679
0.00247514
0.00206602
0.00170034
0.00136941
0.00106577
0.000785375
0.000531102
0.000315369
0.000155619
6.08909e-05
1.8766e-05
4.13569e-06
4.54694e-07
4.95784e-09
1.79312e-08
1.27057e-06
1.47757e-05
7.60055e-05
0.000210528
0.00040268
0.000627377
0.00086576
0.00110919
0.00135588
0.00160703
0.00186467
0.0021308
0.0024072
0.00269552
0.00299752
0.00331546
0.00365276
0.00401539
0.00441513
0.00487987
0.0054872
0.00626514
0.00721164
0.00833574
0.00964
0.0111261
0.0128002
0.0145186
0.0161006
0.0174651
0.0185288
0.0191741
0.0192168
0.0188012
0.0180513
0.0170714
0.0159352
0.0147003
0.0134133
0.0121142
0.010837
0.00961079
0.00845815
0.0073943
0.00642706
0.00555793
0.00478377
0.0040985
0.00349429
0.00296243
0.00249376
0.00207899
0.00170881
0.00137429
0.00106778
0.000785079
0.000529136
0.000312654
0.000153271
5.96201e-05
1.83216e-05
4.02958e-06
4.42257e-07
4.81674e-09
1.79938e-08
1.26918e-06
1.48762e-05
7.69548e-05
0.000213085
0.000407056
0.000633547
0.000873691
0.00111899
0.00136777
0.00162137
0.00188187
0.00215133
0.00243154
0.00272422
0.00303115
0.00335465
0.00369826
0.00406819
0.0044768
0.00495366
0.00557902
0.00637586
0.0073431
0.00849076
0.00982157
0.0113378
0.013046
0.014796
0.0164065
0.0177958
0.0188791
0.0195364
0.01958
0.0191565
0.0183919
0.0173922
0.0162326
0.0149717
0.0136573
0.0123298
0.0110245
0.00977117
0.00859327
0.00750653
0.00651903
0.00563229
0.00484304
0.00414496
0.00353001
0.00298924
0.00251329
0.00209264
0.00171777
0.00137951
0.00106998
0.000784854
0.000527144
0.00030986
0.000150854
5.83218e-05
1.7869e-05
3.92157e-06
4.29607e-07
4.67328e-09
1.8116e-08
1.27617e-06
1.50397e-05
7.79783e-05
0.000215723
0.000411556
0.000639898
0.000881873
0.00112911
0.0013801
0.00163627
0.00189976
0.00217269
0.00245691
0.00275413
0.0030662
0.0033955
0.00374568
0.00412317
0.00454093
0.0050302
0.00567327
0.0064889
0.00747697
0.00864841
0.0100062
0.0115531
0.0132962
0.0150785
0.0167184
0.0181332
0.0192367
0.0199066
0.0199513
0.0195201
0.0187405
0.0177209
0.0165377
0.0152505
0.0139079
0.0125516
0.0112175
0.00993645
0.00873266
0.00762246
0.00661418
0.00570937
0.00490459
0.00419333
0.0035673
0.00301732
0.00253381
0.00210704
0.00172727
0.00138509
0.00107241
0.000784736
0.000525151
0.000307003
0.000148377
5.69994e-05
1.74087e-05
3.81173e-06
4.16745e-07
4.52742e-09
1.83091e-08
1.29279e-06
1.52123e-05
7.90245e-05
0.000218423
0.000416168
0.000646425
0.000890303
0.00113957
0.00139286
0.00165171
0.00191834
0.00219491
0.0024833
0.00278527
0.0031027
0.00343804
0.00379503
0.00418035
0.00460754
0.00510948
0.00576993
0.00660424
0.00761323
0.0088087
0.0101939
0.0117721
0.0135508
0.0153662
0.0170362
0.0184773
0.0196016
0.0202845
0.0203308
0.0198919
0.0190974
0.0180577
0.0168505
0.0155365
0.0141655
0.0127797
0.0114162
0.0101068
0.0088765
0.00774224
0.00671265
0.00578927
0.00496855
0.00424372
0.00360625
0.00304674
0.00255539
0.00212225
0.00173736
0.00139108
0.00107508
0.000784709
0.000523134
0.000304061
0.000145827
5.56498e-05
1.69406e-05
3.7001e-06
4.03683e-07
4.37934e-09
1.83609e-08
1.29229e-06
1.53166e-05
8.00337e-05
0.000221161
0.000420887
0.000653123
0.000898973
0.00115035
0.00140604
0.00166768
0.00193759
0.00221796
0.00251071
0.00281764
0.00314066
0.00348228
0.00384635
0.00423978
0.00467666
0.00519146
0.00586894
0.00672185
0.00775184
0.00897157
0.0103846
0.0119947
0.0138097
0.0156591
0.01736
0.018828
0.0199738
0.0206704
0.0207185
0.0202721
0.0194627
0.0184027
0.0171712
0.0158301
0.01443
0.0130142
0.0116208
0.0102824
0.00902491
0.00786599
0.00681454
0.00587213
0.00503502
0.00429623
0.00364697
0.00307761
0.00257812
0.00213834
0.0017481
0.00139753
0.00107804
0.000784821
0.000521128
0.000301056
0.000143216
5.42771e-05
1.64655e-05
3.5868e-06
3.90428e-07
4.22909e-09
1.84247e-08
1.29298e-06
1.54485e-05
8.10914e-05
0.000223981
0.000425738
0.00066001
0.000907896
0.00116146
0.00141964
0.0016842
0.00195753
0.00224186
0.00253917
0.00285127
0.00318013
0.00352829
0.00389971
0.00430152
0.00474832
0.0052761
0.00597027
0.00684167
0.00789274
0.00913696
0.0105783
0.0122208
0.0140729
0.0159572
0.0176897
0.0191854
0.0203532
0.021064
0.0211143
0.0206607
0.0198364
0.0187559
0.0174999
0.0161313
0.0147017
0.0132554
0.0118314
0.0104633
0.00917804
0.00799386
0.00692
0.00595805
0.00510413
0.00435098
0.00368957
0.00311002
0.00260209
0.0021554
0.00175957
0.00140449
0.00108131
0.000785087
0.000519134
0.000297979
0.000140538
5.28804e-05
1.59833e-05
3.47189e-06
3.76994e-07
4.07686e-09
1.85473e-08
1.30196e-06
1.56052e-05
8.2194e-05
0.00022689
0.000430736
0.000667104
0.00091709
0.00117292
0.00143369
0.00170129
0.00197818
0.00226666
0.00256873
0.00288624
0.00322119
0.00357615
0.00395519
0.00436562
0.00482255
0.00536335
0.00607386
0.00696364
0.00803587
0.00930481
0.0107748
0.0124505
0.0143405
0.0162604
0.0180253
0.0195493
0.0207399
0.0214655
0.0215184
0.0210577
0.0202185
0.0191175
0.0178367
0.0164402
0.0149808
0.0135034
0.0120481
0.0106497
0.00933605
0.008126
0.00702917
0.00604719
0.00517599
0.00440809
0.00373417
0.00314409
0.0026274
0.00217352
0.00177184
0.00141201
0.00108496
0.000785542
0.00051717
0.000294839
0.000137795
5.14611e-05
1.54945e-05
3.35548e-06
3.63394e-07
3.92282e-09
1.86669e-08
1.31114e-06
1.57647e-05
8.33296e-05
0.000229897
0.000435903
0.000674432
0.000926588
0.00118476
0.00144823
0.001719
0.00199961
0.00229242
0.00259947
0.00292263
0.00326392
0.00362596
0.00401288
0.00443217
0.0048994
0.00545315
0.00617966
0.00708768
0.00818113
0.00947502
0.0109742
0.0126836
0.0146122
0.0165685
0.0183666
0.0199197
0.0211338
0.0218747
0.0219307
0.0214632
0.0206092
0.0194875
0.0181817
0.0167571
0.0152672
0.0137582
0.0122712
0.0108419
0.00949909
0.00826254
0.00714218
0.00613967
0.00525076
0.00446771
0.00378091
0.00317996
0.0026542
0.00219282
0.00178501
0.00142021
0.00108906
0.000786237
0.00051527
0.000291651
0.000134997
5.00231e-05
1.5e-05
3.23767e-06
3.49636e-07
3.76703e-09
1.87854e-08
1.3207e-06
1.59266e-05
8.44935e-05
0.000232988
0.00044122
0.000681988
0.000936395
0.00119701
0.0014633
0.00173738
0.00202189
0.00231923
0.00263148
0.00296054
0.00330843
0.00367782
0.00407288
0.00450126
0.00497892
0.0055455
0.0062876
0.00721373
0.00832844
0.00964747
0.0111762
0.01292
0.014888
0.0168816
0.0187136
0.0202964
0.0215346
0.0222915
0.0223511
0.0218771
0.0210083
0.0198659
0.0185349
0.0170818
0.0155612
0.0140202
0.0125007
0.0110398
0.00966731
0.00840365
0.0072592
0.00623565
0.00532859
0.00452998
0.00382993
0.00321779
0.00268262
0.00221344
0.00179923
0.00142917
0.00109368
0.000787232