/*--------------------------------*- C++ -*----------------------------------*\
| =========                 |                                                 |
| \\      /  F ield         | OpenFOAM: The Open Source CFD Toolbox           |
|  \\    /   O peration     | Version:  2412                                  |
|   \\  /    A nd           | Website:  www.openfoam.com                      |
|    \\/     M anipulation  |                                                 |
\*---------------------------------------------------------------------------*/
FoamFile
{
    version     2.0;
    format      ascii;
    arch        "LSB;label=32;scalar=64";
    class       volScalarField;
    location    "2000";
    object      nuTilda;
}
// * * * * * * * * * * * * * * * * * * * * * * * * * * * * * * * * * * * * * //

dimensions      [0 2 -1 0 0 0 0];

internalField   nonuniform List<scalar> 
32240
(
5.01106e-05
0.000157291
0.000267298
0.000389358
0.000526781
0.000669556
0.000817492
0.000972188
0.00113442
0.00130436
0.0014818
0.00166635
0.00185754
0.00205481
0.00225764
0.0024655
0.00267801
0.00289499
0.00311664
0.00334385
0.00357868
0.00382524
0.00409175
0.00439694
0.00480805
0.00538068
0.00610254
0.00695781
0.00792908
0.00891701
0.00978035
0.010466
0.0109122
0.0110142
0.0108515
0.0105028
0.0100261
0.00946455
0.00885031
0.00820843
0.00755839
0.00691537
0.00629094
0.00569362
0.00512928
0.00460152
0.00411205
0.0036611
0.00324782
0.0028706
0.00252734
0.0022157
0.00193324
0.00167753
0.00144622
0.00123706
0.00104789
0.000876529
0.000720602
0.000577418
0.000444834
0.000325341
0.000221167
0.000127438
4.12996e-05
5.04366e-05
0.000158394
0.000268817
0.000391126
0.000528942
0.000672234
0.000820807
0.000976245
0.00113932
0.00131019
0.00148865
0.00167434
0.00186679
0.00206551
0.00226999
0.00247978
0.00269453
0.00291415
0.00313893
0.00336988
0.00360922
0.00386145
0.00413582
0.00445523
0.00490888
0.00551948
0.00627784
0.00716771
0.00817487
0.00917909
0.0100552
0.0107499
0.0111993
0.011296
0.0111218
0.0107571
0.0102616
0.00967911
0.00904292
0.00837874
0.0077067
0.00704252
0.00639824
0.00578274
0.00520212
0.00466009
0.00415835
0.00369707
0.00327523
0.00289103
0.00254218
0.00222614
0.00194029
0.00168202
0.00144884
0.00123838
0.00104834
0.000876418
0.000720139
0.000576738
0.00044403
0.00032456
0.000220513
0.000126971
4.11225e-05
5.05488e-05
0.000158846
0.000269615
0.000392248
0.000530405
0.000673984
0.000822839
0.000978571
0.00114196
0.00131317
0.00149203
0.00167817
0.00187115
0.00207048
0.00227568
0.00248632
0.00270209
0.00292293
0.00314916
0.00338187
0.00362334
0.0038782
0.00415606
0.00448189
0.00495337
0.0055793
0.00635255
0.00725679
0.00827963
0.0092911
0.0101732
0.0108724
0.0113235
0.0114181
0.0112389
0.0108671
0.0103631
0.00977129
0.0091253
0.00845121
0.00776942
0.00709591
0.00644293
0.00581951
0.00523183
0.00468366
0.00417668
0.00371099
0.00328553
0.00289839
0.00254721
0.00222936
0.00194211
0.00168278
0.00144882
0.00123778
0.00104734
0.000875182
0.000718806
0.000575447
0.000442951
0.000323848
0.000220111
0.00012679
4.10816e-05
5.07407e-05
0.000159464
0.000270508
0.000393423
0.00053191
0.000675843
0.000825125
0.000981371
0.00114537
0.00131729
0.00149698
0.0016841
0.00187821
0.00207887
0.00228565
0.00249815
0.00271616
0.00293971
0.00316928
0.00340615
0.00365291
0.00391466
0.0042021
0.00454437
0.00504367
0.00569527
0.00649378
0.00742217
0.00846931
0.00949686
0.0103915
0.0110993
0.0115538
0.0116445
0.0114565
0.0110723
0.0105533
0.00994494
0.00928144
0.00858948
0.00789001
0.00719946
0.00653048
0.00589241
0.00529164
0.004732
0.00421518
0.0037412
0.00330884
0.00291605
0.00256027
0.00223872
0.00194856
0.001687
0.00145136
0.00123912
0.00104786
0.000875158
0.000718435
0.000574862
0.000442269
0.000323233
0.000219635
0.000126476
4.09673e-05
5.09212e-05
0.00016014
0.000271449
0.000394584
0.000533346
0.000677569
0.000827178
0.000983789
0.00114819
0.00132056
0.00150073
0.00168838
0.00188309
0.00208443
0.00229198
0.0025054
0.00272451
0.00294941
0.00318069
0.00341978
0.00366955
0.00393556
0.00422965
0.00458547
0.00510184
0.00576968
0.00658519
0.00753084
0.00859682
0.00963385
0.0105363
0.0112499
0.011707
0.0117956
0.0116018
0.011209
0.0106797
0.0100598
0.00938421
0.00867993
0.00796833
0.00726614
0.00658629
0.00593831
0.00532871
0.00476138
0.00423801
0.00375854
0.00332168
0.00292526
0.00256663
0.00224289
0.00195106
0.00168826
0.00145173
0.00123886
0.00104716
0.000874168
0.000717313
0.000573743
0.000441284
0.000322512
0.000219159
0.000126205
4.08805e-05
5.1104e-05
0.00016078
0.000272357
0.00039581
0.000534955
0.000679585
0.000829665
0.000986826
0.00115186
0.00132497
0.00150599
0.00169462
0.00189047
0.00209314
0.00230224
0.00251748
0.00273877
0.00296629
0.00320081
0.00344397
0.00369904
0.0039723
0.0042773
0.00465448
0.00519389
0.00588447
0.00672208
0.00768951
0.00877795
0.00983063
0.0107455
0.0114678
0.0119284
0.0120136
0.0118114
0.0114067
0.0108631
0.0102273
0.00953481
0.00881328
0.00808454
0.00736583
0.00667044
0.00600823
0.0053859
0.00480745
0.00427453
0.00378703
0.00334352
0.00294167
0.00257866
0.00225144
0.0019569
0.001692
0.00145386
0.00123982
0.00104731
0.000873817
0.000716651
0.000572918
0.000440442
0.000321829
0.000218673
0.000125909
4.07805e-05
5.12609e-05
0.000161278
0.000273188
0.000396939
0.000536386
0.000681311
0.000831727
0.000989276
0.00115475
0.00132835
0.00150992
0.00169916
0.00189569
0.00209912
0.00230909
0.00252534
0.00274778
0.0029767
0.00321294
0.00345834
0.00371651
0.00399442
0.00430739
0.00470324
0.00526151
0.00597111
0.00682695
0.00781318
0.00892154
0.00998612
0.0109106
0.0116399
0.0121039
0.0121868
0.0119782
0.011564
0.0110089
0.0103601
0.00965395
0.00891844
0.00817588
0.00744385
0.00673599
0.00606237
0.00542987
0.00484253
0.00430201
0.00380814
0.00335936
0.00295324
0.00258682
0.00225693
0.00196032
0.00169388
0.00145463
0.00123981
0.00104677
0.000872921
0.000715581
0.000571813
0.000439438
0.000321072
0.000218158
0.000125606
4.06805e-05
5.1458e-05
0.000162005
0.000274209
0.000398239
0.000538084
0.000683459
0.000834407
0.000992579
0.00115878
0.0013332
0.00151572
0.00170606
0.00190383
0.00210869
0.00232028
0.0025384
0.00276301
0.00299445
0.0032337
0.00348278
0.00374562
0.00402996
0.00435319
0.00477262
0.00535371
0.00608574
0.00696279
0.00797027
0.00910036
0.0101804
0.0111173
0.0118554
0.012323
0.0124028
0.0121861
0.0117602
0.0111909
0.0105264
0.00980341
0.00905072
0.00829109
0.00754257
0.00681919
0.00613137
0.00548617
0.00488774
0.00433774
0.00383588
0.00338049
0.002969
0.00259827
0.00226496
0.0019657
0.00169723
0.00145646
0.00124052
0.00104671
0.000872372
0.000714741
0.000570839
0.000438488
0.000320324
0.000217636
0.000125294
4.05766e-05
5.1647e-05
0.000162687
0.000275129
0.000399431
0.000539583
0.000685288
0.000836627
0.000995257
0.00116198
0.001337
0.0015202
0.00171129
0.00190993
0.00211575
0.00232844
0.0025478
0.00277385
0.00300697
0.00324822
0.00349977
0.00376588
0.00405499
0.00438667
0.00482811
0.00543003
0.00618257
0.00707923
0.00810674
0.00925718
0.0103508
0.0112986
0.0120448
0.0125162
0.0125937
0.0123702
0.011934
0.0113522
0.0106736
0.00993568
0.00916767
0.00839284
0.00762964
0.00689248
0.00619203
0.00553554
0.00492725
0.0043688
0.00385984
0.00339858
0.00298231
0.00260776
0.00227144
0.00196985
0.00169961
0.00145754
0.00124068
0.00104624
0.000871501
0.000713659
0.000569695
0.000437433
0.000319521
0.000217085
0.000124968
4.04683e-05
5.1818e-05
0.000163239
0.000276028
0.000400723
0.00054134
0.000687544
0.000839466
0.000998782
0.0011663
0.00134225
0.0015265
0.0017188
0.00191882
0.00212621
0.0023407
0.00256212
0.0027905
0.00302631
0.00327067
0.00352589
0.00379648
0.0040916
0.00443328
0.0048998
0.0055247
0.00629942
0.00721714
0.00826599
0.00943756
0.0105467
0.0115071
0.0122623
0.0127377
0.0128122
0.0125807
0.0121328
0.0115367
0.0108422
0.0100874
0.00930195
0.00850978
0.00772982
0.00697688
0.00626198
0.00559258
0.004973
0.00440488
0.00388781
0.00341984
0.00299811
0.00261917
0.00227939
0.00197511
0.00170282
0.00145922
0.00124125
0.00104605
0.000870817
0.000712689
0.000568604
0.00043639
0.00031871
0.000216522
0.000124633
4.03569e-05
5.19767e-05
0.000163722
0.000276861
0.000401917
0.000542913
0.000689497
0.000841865
0.00100171
0.00116984
0.00134649
0.00153155
0.00172478
0.00192586
0.00213448
0.00235039
0.00257345
0.00280377
0.00304184
0.00328889
0.00354736
0.00382205
0.00412281
0.00447429
0.00496422
0.00561046
0.00640613
0.00734418
0.00841407
0.00960595
0.0107298
0.0117022
0.0124662
0.0129458
0.0130179
0.0127793
0.0123205
0.0117111
0.0110016
0.0102307
0.00942886
0.00862031
0.00782451
0.00705665
0.00632806
0.00564643
0.00501614
0.00443886
0.00391407
0.00343973
0.00301279
0.00262969
0.00228662
0.00197979
0.00170556
0.00146052
0.00124152
0.00104561
0.000869932
0.000711561
0.000567397
0.000435269
0.000317852
0.000215931
0.000124282
4.02406e-05
5.21775e-05
0.000164437
0.000277874
0.000403269
0.000544705
0.000691792
0.000844757
0.0010053
0.00117426
0.00135187
0.00153803
0.00173253
0.00193508
0.0021454
0.00236326
0.00258858
0.00282152
0.00306267
0.00331334
0.00357616
0.00385623
0.00416423
0.00452802
0.00504175
0.00570971
0.00652692
0.00748606
0.00857782
0.00979036
0.01093
0.0119153
0.0126887
0.0131727
0.013242
0.0129955
0.0125249
0.011901
0.0111753
0.010387
0.00956727
0.00874092
0.00792786
0.00714375
0.00640026
0.00570529
0.00506336
0.0044761
0.00394292
0.00346163
0.00302905
0.00264141
0.00229475
0.00198513
0.00170878
0.00146216
0.00124202
0.00104532
0.00086914
0.00071048
0.000566201
0.000434137
0.000316977
0.000215324
0.000123921
4.01204e-05
5.23626e-05
0.000165065
0.000278863
0.000404546
0.00054634
0.000693827
0.000847273
0.00100839
0.00117801
0.00135639
0.00154345
0.00173899
0.00194274
0.00215446
0.00237397
0.00260123
0.00283649
0.00308042
0.00333452
0.00360163
0.0038873
0.00420322
0.0045811
0.00511609
0.0058043
0.00664237
0.00762252
0.00873645
0.00996916
0.0111243
0.0121225
0.0129054
0.013394
0.0134611
0.013207
0.0127251
0.0120872
0.0113456
0.0105404
0.00970318
0.00885939
0.00802943
0.00722938
0.00647126
0.00576319
0.00510979
0.00451271
0.00397126
0.00348313
0.00304496
0.00265283
0.00230263
0.00199026
0.00171181
0.00146363
0.00124237
0.0010449
0.000868226
0.000709294
0.000564919
0.000432942
0.00031606
0.000214691
0.000123544
3.99954e-05
5.25412e-05
0.000165649
0.000279713
0.000405836
0.000548122
0.00069612
0.000850164
0.00101199
0.00118244
0.00136179
0.00154996
0.00174679
0.00195203
0.00216546
0.00238696
0.00261653
0.00285451
0.00310167
0.00335968
0.00363166
0.00392371
0.00424884
0.00464369
0.00519941
0.00590802
0.00676744
0.00776923
0.00890605
0.0101592
0.0113305
0.0123423
0.0131351
0.0136285
0.013693
0.013431
0.012937
0.0122843
0.011526
0.0107029
0.00984725
0.00898502
0.00813716
0.00732023
0.0065466
0.00582465
0.00515912
0.00455164
0.00400143
0.00350605
0.00306196
0.00266509
0.00231113
0.00199583
0.00171515
0.00146531
0.00124285
0.00104455
0.000867343
0.000708109
0.000563616
0.000431717
0.000315117
0.000214037
0.000123155
3.9866e-05
5.2689e-05
0.000166049
0.000280506
0.000407084
0.000549803
0.000698239
0.0008528
0.00101524
0.00118642
0.00136661
0.00155577
0.00175374
0.00196029
0.00217526
0.00239853
0.00263019
0.00287063
0.00312077
0.00338242
0.00365906
0.00395736
0.00429189
0.00470504
0.00528063
0.00600937
0.0068902
0.00791396
0.00907425
0.0103476
0.0115352
0.0125607
0.0133637
0.0138622
0.0139245
0.0136548
0.013149
0.0124816
0.0117067
0.0108658
0.00999174
0.00911109
0.00824533
0.00741149
0.00662232
0.00588646
0.00520875
0.00459081
0.0040318
0.00352911
0.00307907
0.0026774
0.00231964
0.00200139
0.00171845
0.00146693
0.00124326
0.00104412
0.00086638
0.000706846
0.000562245
0.000430438
0.000314136
0.000213357
0.000122751
3.97316e-05
5.29096e-05
0.000166838
0.000281657
0.000408503
0.000551633
0.000700571
0.000855745
0.00101892
0.00119097
0.00137216
0.00156249
0.00176181
0.00196991
0.00218666
0.00241198
0.002646
0.00288919
0.00314255
0.00340809
0.00368959
0.00399439
0.00433877
0.00477187
0.0053678
0.00611714
0.00701984
0.00806608
0.00925041
0.0105441
0.0117487
0.0127884
0.013602
0.0141058
0.0141657
0.0138881
0.01337
0.0126874
0.0118952
0.0110358
0.0101426
0.00924274
0.00835832
0.00750685
0.00670148
0.00595109
0.00526066
0.00463182
0.00406361
0.0035533
0.00309703
0.00269035
0.00232862
0.00200728
0.00172197
0.00146869
0.00124374
0.00104373
0.000865421
0.000705566
0.000560841
0.000429122
0.000313124
0.000212654
0.000122332
3.95923e-05
5.31063e-05
0.000167509
0.00028261
0.000409838
0.000553404
0.000702823
0.000858575
0.00102245
0.00119531
0.00137747
0.00156892
0.00176952
0.00197912
0.00219757
0.00242485
0.00266114
0.00290695
0.00316341
0.0034327
0.00371889
0.00403002
0.00438424
0.00483804
0.00545446
0.00622456
0.00714935
0.00821843
0.00942738
0.0107416
0.0119634
0.0130177
0.0138422
0.0143516
0.0144095
0.014124
0.0135936
0.0128958
0.0120863
0.0112082
0.0102956
0.00937641
0.00847311
0.00760379
0.00678199
0.00601687
0.00531354
0.00467361
0.00409606
0.00357799
0.00311537
0.00270357
0.00233779
0.00201328
0.00172556
0.00147047
0.00124421
0.0010433
0.000864405
0.00070422
0.000559373
0.000427752
0.000312074
0.000211924
0.000121897
3.94478e-05
5.32799e-05
0.00016803
0.000283541
0.000411209
0.000555285
0.000705259
0.000861679
0.00102635
0.00120017
0.00138344
0.00157617
0.00177825
0.00198954
0.00220993
0.00243941
0.00267821
0.0029269
0.00318669
0.00345991
0.00375097
0.00406858
0.00443294
0.00490851
0.00554596
0.00633717
0.00728423
0.00837643
0.00961043
0.0109455
0.012185
0.0132544
0.0140903
0.0146056
0.0146613
0.0143677
0.0138248
0.0131113
0.0122839
0.0113866
0.0104541
0.00951488
0.00859208
0.00770429
0.0068655
0.00608514
0.00536845
0.00471704
0.00412981
0.00360369
0.00313449
0.00271738
0.00234738
0.00201958
0.00172933
0.00147236
0.00124474
0.00104288
0.000863373
0.00070284
0.000557859
0.000426337
0.000310988
0.000211169
0.000121447
3.92979e-05
5.34894e-05
0.000168747
0.000284565
0.00041261
0.000557145
0.00070766
0.000864746
0.00103022
0.001205
0.00138938
0.00158341
0.00178698
0.00199998
0.00222231
0.00245402
0.00269535
0.00294694
0.0032101
0.0034873
0.00378326
0.00410742
0.00448217
0.00497996
0.0056387
0.00645137
0.00742049
0.00853601
0.00979555
0.0111517
0.0124095
0.0134944
0.0143421
0.0148635
0.0149173
0.0146158
0.0140602
0.0133309
0.0124855
0.0115687
0.0106159
0.00965635
0.00871369
0.00780709
0.00695097
0.00615506
0.00542473
0.0047616
0.00416446
0.0036301
0.00315415
0.00273159
0.00235726
0.00202606
0.00173322
0.00147431
0.00124528
0.00104244
0.000862298
0.000701404
0.000556286
0.00042487
0.000309863
0.000210387
0.00012098
3.91425e-05
5.36896e-05
0.000169405
0.000285651
0.00041406
0.00055909
0.000710201
0.000868022
0.00103439
0.00121022
0.00139585
0.00159131
0.00179653
0.00201142
0.0022359
0.00247005
0.00271417
0.00296893
0.00323574
0.00351721
0.00381837
0.0041494
0.00453512
0.00505535
0.00573544
0.0065698
0.00756094
0.00870007
0.0099856
0.0113634
0.0126399
0.013741
0.0146009
0.0151287
0.0151806
0.014871
0.0143026
0.013557
0.0126932
0.0117563
0.0107828
0.00980232
0.00883924
0.00791328
0.0070393
0.00622737
0.00548297
0.00480775
0.00420037
0.00365751
0.00317457
0.00274637
0.00236754
0.00203284
0.0017373
0.00147636
0.00124586
0.001042
0.000861204
0.00069993
0.000554665
0.000423356
0.0003087
0.000209575
0.000120495
3.89813e-05
5.3884e-05
0.00017003
0.000286572
0.000415458
0.000561029
0.000712745
0.000871308
0.00103858
0.00121547
0.00140235
0.00159927
0.00180617
0.00202298
0.00224968
0.00248637
0.00273338
0.00299147
0.00326213
0.00354815
0.00385485
0.00419321
0.00459072
0.00513291
0.00583399
0.0066899
0.00770327
0.00886638
0.0101785
0.0115783
0.0128742
0.0139919
0.0148644
0.0153991
0.0154493
0.0151316
0.0145502
0.0137883
0.0129056
0.0119484
0.0109538
0.00995194
0.00896801
0.00802225
0.00713002
0.00630169
0.00554289
0.00485527
0.0042374
0.00368579
0.00319567
0.00276165
0.00237819
0.00203985
0.00174152
0.00147849
0.00124647
0.00104155
0.000860064
0.000698395
0.000552977
0.000421783
0.000307494
0.000208735
0.000119993
3.8814e-05
5.4042e-05
0.000170433
0.000287425
0.00041686
0.000563045
0.000715427
0.00087478
0.001043
0.00122103
0.00140924
0.0016077
0.00181639
0.00203526
0.00226432
0.00250372
0.00275385
0.00301553
0.00329035
0.00358129
0.00389402
0.00424041
0.00465096
0.00521442
0.0059361
0.00681345
0.00784918
0.00903661
0.0103757
0.0117982
0.0131141
0.014249
0.0151346
0.0156764
0.015725
0.0153991
0.0148045
0.0140259
0.013124
0.0121461
0.0111297
0.010106
0.00910071
0.00813462
0.00722363
0.00637843
0.00560481
0.00490443
0.00427575
0.00371511
0.00321757
0.00277754
0.00238928
0.00204718
0.00174595
0.00148074
0.00124714
0.00104111
0.000858899
0.000696813
0.000551232
0.000420158
0.000306247
0.000207864
0.000119472
3.86405e-05
5.42667e-05
0.000171214
0.000288515
0.000418368
0.000565127
0.000718146
0.000878309
0.0010475
0.00122668
0.00141623
0.00161626
0.00182677
0.00204774
0.00227923
0.00252142
0.00277477
0.00304018
0.00331936
0.0036155
0.00393468
0.00428978
0.00471473
0.00529851
0.00604034
0.00693908
0.00799739
0.00920955
0.0105762
0.0120219
0.0133585
0.0145111
0.0154103
0.0159595
0.0160067
0.0156727
0.0150647
0.0142692
0.0133479
0.0123487
0.0113103
0.0102643
0.00923704
0.00825016
0.00731995
0.00645746
0.00566864
0.00495516
0.00431537
0.00374545
0.00324026
0.00279403
0.0024008
0.0020548
0.00175057
0.0014831
0.00124784
0.00104066
0.000857697
0.000695173
0.00054942
0.000418473
0.000304956
0.000206961
0.000118932
3.84607e-05
5.42987e-05
0.000171077
0.000288643
0.000419561
0.000567107
0.000720886
0.000881888
0.00105211
0.00123251
0.00142349
0.00162518
0.0018376
0.00206079
0.00229482
0.00253994
0.00279666
0.00306598
0.00334973
0.00365133
0.00397733
0.00434175
0.00478241
0.00538579
0.00614752
0.00706768
0.00814884
0.00938613
0.0107808
0.0122504
0.0136084
0.0147793
0.0156926
0.0162496
0.0162955
0.0159533
0.0153317
0.0145189
0.0135778
0.012557
0.011496
0.0104271
0.00937743
0.0083692
0.00741926
0.00653902
0.00573459
0.00500762
0.00435639
0.00377691
0.00326382
0.00281117
0.00241281
0.00206276
0.0017554
0.00148558
0.00124861
0.00104022
0.000856467
0.000693484
0.000547549
0.000416731
0.00030362
0.000206025
0.000118372
3.82739e-05
4.97189e-05
0.000145323
0.000268825
0.000414783
0.000567822
0.000723266
0.000885365
0.00105667
0.00123833
0.00143079
0.00163419
0.0018486
0.00207408
0.00231074
0.00255889
0.0028191
0.00309244
0.0033809
0.00368814
0.0040212
0.00439537
0.00485274
0.00547527
0.00625682
0.00719855
0.00830289
0.00956576
0.0109891
0.0124833
0.0138632
0.0150531
0.0159809
0.0165461
0.0165908
0.0162404
0.0156052
0.0147749
0.0138135
0.0127708
0.0116866
0.0105944
0.0095218
0.00849171
0.00752156
0.0066231
0.00580264
0.00506183
0.00439884
0.0038095
0.00328827
0.00282899
0.00242531
0.00207106
0.00176047
0.0014882
0.00124943
0.00103979
0.000855202
0.000691736
0.000545606
0.000414926
0.000302237
0.000205055
0.000117791
3.80801e-05
4.97388e-05
0.000145151
0.000268958
0.000416088
0.000569903
0.000726061
0.000889032
0.00106141
0.00124435
0.00143833
0.00164352
0.00186002
0.0020879
0.00232733
0.00257864
0.00284247
0.00311999
0.00341331
0.00372633
0.00406664
0.00445088
0.00492574
0.00556727
0.00636871
0.0073322
0.00846004
0.00974895
0.0112014
0.0127209
0.0141235
0.015333
0.0162758
0.0168496
0.0168933
0.0165347
0.0158857
0.0150376
0.0140556
0.0129904
0.0118827
0.0107665
0.00967042
0.00861793
0.00762703
0.00670988
0.00587295
0.00511791
0.00444281
0.00384331
0.00331368
0.00284754
0.00243834
0.00207975
0.00176578
0.00149096
0.00125032
0.00103936
0.00085391
0.000689933
0.000543597
0.00041306
0.000300805
0.00020405
0.000117188
3.7879e-05
4.98201e-05
0.00014528
0.000269544
0.000417511
0.000572026
0.00072892
0.0008928
0.00106629
0.00125057
0.00144613
0.00165319
0.00187184
0.00210221
0.0023445
0.00259909
0.00286665
0.00314846
0.00344675
0.00376569
0.0041134
0.00450795
0.00500082
0.00566134
0.00648278
0.00746827
0.00862
0.00993542
0.0114177
0.0129632
0.0143892
0.0156188
0.0165772
0.0171599
0.0172029
0.016836
0.016173
0.0153069
0.0143039
0.0132158
0.0120841
0.0109435
0.00982334
0.0087479
0.00773574
0.00679941
0.00594558
0.00517591
0.00448836
0.00387839
0.00334009
0.00286685
0.00245195
0.00208883
0.00177136
0.00149388
0.00125129
0.00103895
0.000852588
0.000688071
0.000541515
0.000411127
0.000299323
0.000203008
0.000116563
3.76702e-05
4.98603e-05
0.000145166
0.000269958
0.000418901
0.000574176
0.000731846
0.000896675
0.00107133
0.00125701
0.00145424
0.00166325
0.00188417
0.00211716
0.00236245
0.00262045
0.0028919
0.00317815
0.00348157
0.00380657
0.00416183
0.0045669
0.00507818
0.00575774
0.00659935
0.00760707
0.00878304
0.0101255
0.011638
0.0132103
0.0146604
0.0159108
0.0168854
0.0174774
0.0175197
0.0171447
0.0164675
0.0155831
0.0145588
0.0134473
0.0122911
0.0111255
0.00998076
0.0088818
0.00784783
0.00689182
0.00602063
0.00523594
0.00453557
0.00391482
0.00336756
0.00288698
0.00246616
0.00209835
0.00177722
0.00149697
0.00125234
0.00103856
0.000851232
0.000686146
0.000539354
0.000409125
0.000297788
0.000201927
0.000115914
3.74535e-05
4.99125e-05
0.000145129
0.00027054
0.000420358
0.000576375
0.000734841
0.000900656
0.00107652
0.00126367
0.00146265
0.0016737
0.001897
0.00213272
0.00238113
0.00264269
0.00291819
0.00320903
0.00351773
0.00384895
0.00421192
0.00462774
0.00515764
0.00585633
0.00671824
0.00774843
0.00894903
0.010319
0.0118624
0.0134623
0.0149372
0.016209
0.0172002
0.017802
0.017844
0.0174607
0.0167693
0.0158663
0.0148204
0.0136851
0.0125038
0.0113127
0.0101428
0.00901972
0.0079634
0.0069872
0.00609819
0.00529806
0.0045845
0.00395264
0.00339614
0.00290797
0.00248101
0.00210832
0.00178339
0.00150025
0.00125348
0.00103819
0.000849849
0.00068416
0.000537119
0.000407055
0.0002962
0.000200807
0.00011524
3.72284e-05
5.00226e-05
0.000145449
0.000271313
0.000421887
0.000578628
0.000737912
0.000904755
0.00108189
0.00127059
0.00147139
0.0016846
0.00191039
0.00214899
0.00240068
0.00266597
0.00294569
0.00324131
0.00355549
0.00389311
0.00426399
0.0046908
0.00523942
0.00595728
0.00683962
0.00789252
0.00911812
0.010516
0.012091
0.0137192
0.0152197
0.0165137
0.0175221
0.018134
0.0181758
0.0177844
0.0170785
0.0161567
0.0150888
0.0139293
0.0127224
0.0115053
0.0103096
0.00916184
0.00808259
0.00708568
0.00617837
0.00536237
0.00463525
0.00399194
0.00342589
0.00292987
0.00249654
0.00211878
0.00178989
0.00150373
0.00125473
0.00103784
0.00084844
0.000682114
0.000534804
0.000404913
0.000294554
0.000199645
0.000114541
3.69946e-05
5.01525e-05
0.000145888
0.000272136
0.000423449
0.000580926
0.000741058
0.000908972
0.00108744
0.00127774
0.00148047
0.00169593
0.00192435
0.00216596
0.00242109
0.00269028
0.0029744
0.00327501
0.00359487
0.00393911
0.00431812
0.00475619
0.00532351
0.00606053
0.00696343
0.00803927
0.00929026
0.0107167
0.0123239
0.0139811
0.0155079
0.0168247
0.0178509
0.0184734
0.0185153
0.0181158
0.0173953
0.0164544
0.0153642
0.01418
0.0129471
0.0117033
0.0104813
0.00930827
0.00820552
0.00718736
0.00626128
0.00542897
0.0046879
0.00403279
0.00345688
0.00295274
0.00251281
0.00212977
0.00179675
0.00150743
0.00125609
0.00103753
0.00084701
0.000680006
0.000532408
0.000402697
0.000292852
0.000198439
0.000113814
3.67515e-05
5.02563e-05
0.000146183
0.000272826
0.000424994
0.000583264
0.000744286
0.000913322
0.00109318
0.00128518
0.00148992
0.00170775
0.00193892
0.00218369
0.00244244
0.00271571
0.00300445
0.00331026
0.00363603
0.00398713
0.00437452
0.00482415
0.00541004
0.0061662
0.00708974
0.00818874
0.00946551
0.010921
0.012561
0.0142482
0.015802
0.0171422
0.0181868
0.0188204
0.0188626
0.018455
0.0177199
0.0167597
0.0156467
0.0144375
0.013178
0.011907
0.010658
0.00945916
0.00833233
0.00729237
0.00634701
0.00549796
0.00474254
0.00407528
0.0034892
0.00297664
0.00252986
0.00214133
0.001804
0.00151138
0.00125757
0.00103726
0.000845545
0.000677821
0.000529916
0.000400399
0.000291087
0.000197189
0.000113061
3.64991e-05
5.03367e-05
0.000146349
0.00027344
0.000426542
0.00058565
0.000747603
0.00091781
0.00109912
0.00129289
0.00149974
0.00172006
0.00195411
0.00220221
0.00246474
0.0027423
0.00303586
0.0033471
0.00367901
0.00403723
0.00443327
0.00489476
0.00549901
0.00627422
0.0072185
0.00834088
0.00964384
0.0111289
0.0128024
0.0145203
0.016102
0.0174663
0.0185298
0.019175
0.0192178
0.0188022
0.0180524
0.0170727
0.0159366
0.0147019
0.0134153
0.0121166
0.01084
0.00961466
0.00846315
0.00740083
0.00643569
0.00556944
0.00479926
0.00411949
0.0035229
0.00300164
0.00254774
0.00215349
0.00181167
0.00151558
0.0012592
0.00103703
0.000844066
0.000675577
0.000527343
0.000398025
0.000289261
0.000195891
0.000112277
3.62365e-05
5.03806e-05
0.000146309
0.000273924
0.000428074
0.000588078
0.000751007
0.000922441
0.00110528
0.0013009
0.00150997
0.00173289
0.00196998
0.00222155
0.00248805
0.00277009
0.00306869
0.00338559
0.0037239
0.00408948
0.00449445
0.00496812
0.00559045
0.00638462
0.00734972
0.00849571
0.00982527
0.0113405
0.0130481
0.0147976
0.0164078
0.017797
0.0188801
0.0195374
0.019581
0.0191575
0.0183929
0.0173934
0.016234
0.0149733
0.0136592
0.0123321
0.0110274
0.00977491
0.0085981
0.00751286
0.00652742
0.00564351
0.00485816
0.00416549
0.00355806
0.00302779
0.0025665
0.00216631
0.00181978
0.00152008
0.00126098
0.00103686
0.000842566
0.000673262
0.000524674
0.000395567
0.000287368
0.000194545
0.000111463
3.59636e-05
5.04659e-05
0.000146511
0.000274705
0.000429713
0.000590571
0.000754501
0.000927209
0.00111164
0.0013092
0.00152059
0.00174625
0.0019865
0.00224172
0.00251236
0.00279908
0.00310294
0.00342573
0.00377068
0.00414391
0.00455809
0.00504423
0.00568432
0.00649736
0.00748336
0.00865319
0.0100098
0.0115558
0.0132982
0.0150801
0.0167197
0.0181343
0.0192377
0.0199075
0.0199522
0.019521
0.0187415
0.0177221
0.016539
0.015252
0.0139098
0.0125538
0.0112203
0.00994008
0.00873735
0.0076286
0.00662234
0.00572028
0.00491934
0.0042134
0.00359479
0.00305519
0.00258624
0.00217985
0.0018284
0.0015249
0.00126295
0.00103677
0.000841065
0.000670889
0.000521917
0.000393028
0.00028541
0.000193147
0.000110617
3.56796e-05
5.05999e-05
0.000146989
0.000275523
0.000431374
0.000593109
0.000758075
0.000932111
0.00111821
0.0013178
0.00153161
0.00176012
0.00200369
0.00226272
0.00253769
0.00282929
0.00313862
0.00346755
0.00381941
0.00420054
0.00462422
0.00512308
0.00578062
0.00661242
0.00761939
0.00881331
0.0101973
0.0117746
0.0135527
0.0153677
0.0170375
0.0184783
0.0196025
0.0202854
0.0203317
0.0198928
0.0190984
0.0180588
0.0168517
0.015538
0.0141672
0.0127819
0.0114189
0.0101103
0.00888103
0.00774819
0.00672056
0.00579989
0.00498292
0.00426332
0.00363317
0.00308392
0.00260701
0.00219416
0.00183757
0.00153007
0.00126511
0.00103675
0.000839546
0.000668438
0.000519055
0.000390397
0.00028338
0.000191696
0.000109737
3.53842e-05
5.06357e-05
0.000146975
0.000276015
0.000432965
0.000595671
0.000761724
0.000937144
0.00112497
0.00132668
0.00154302
0.0017745
0.00202154
0.00228453
0.00256402
0.00286071
0.00317576
0.00351107
0.0038701
0.00425942
0.00469285
0.00520464
0.00587928
0.00672974
0.00775778
0.00897601
0.0103879
0.0119971
0.0138116
0.0156606
0.0173612
0.018829
0.0199747
0.0206712
0.0207193
0.020273
0.0194637
0.0184037
0.0171724
0.0158315
0.0144317
0.0130163
0.0116234
0.0102857
0.0090293
0.00787176
0.00682222
0.00588245
0.00504902
0.00431536
0.00367331
0.00311408
0.00262891
0.00220931
0.00184735
0.00153565
0.00126751
0.00103683
0.000838035
0.000665928
0.000516098
0.000387681
0.000281279
0.00019019
0.000108823
3.50767e-05
5.06796e-05
0.000146994
0.000276633
0.000434619
0.000598296
0.000765469
0.000942321
0.00113194
0.00133585
0.00155482
0.00178941
0.00204005
0.00230719
0.00259139
0.0028934
0.0032144
0.00355637
0.00392283
0.0043206
0.00476404
0.00528887
0.00598027
0.00684929
0.00789847
0.00914124
0.0105815
0.0122232
0.0140748
0.0159586
0.0176909
0.0191863
0.0203541
0.0210648
0.0211152
0.0206616
0.0198373
0.0187569
0.017501
0.0161327
0.0147034
0.0132574
0.0118339
0.0104666
0.00918229
0.00799945
0.00692745
0.00596809
0.00511775
0.00436964
0.00371532
0.00314578
0.00265202
0.0022254
0.00185779
0.00154167
0.00127017
0.00103704
0.000836533
0.00066335
0.000513036
0.000384871
0.000279102
0.000188626
0.000107872
3.47566e-05
5.07637e-05
0.000147251
0.000277363
0.00043633
0.00060099
0.00076932
0.000947657
0.00113914
0.00134533
0.00156704
0.00180486
0.00205926
0.00233073
0.00261986
0.00292742
0.00325463
0.00360351
0.00397769
0.00438416
0.00483779
0.0053757
0.00608352
0.00697099
0.0080414
0.00930894
0.0107779
0.0124528
0.0143422
0.0162617
0.0180264
0.0195502
0.0207408
0.0214662
0.0215192
0.0210585
0.0202194
0.0191184
0.0178378
0.0164416
0.0149823
0.0135053
0.0120506
0.0106529
0.00934015
0.00813141
0.00703639
0.00605693
0.00518925
0.00442628
0.00375933
0.00317912
0.00267645
0.0022425
0.00186898
0.0015482
0.00127314
0.00103738
0.000835053
0.000660709
0.00050987
0.000381967
0.000276848
0.000187003
0.000106883
3.44236e-05
5.08454e-05
0.000147511
0.0002781
0.000438078
0.000603761
0.000773293
0.000953172
0.00114659
0.00135515
0.00157972
0.0018209
0.00207923
0.00235522
0.00264949
0.00296285
0.00329653
0.00365259
0.00403475
0.00445017
0.00491417
0.00546511
0.00618899
0.00709479
0.00818647
0.00947901
0.0109772
0.0126858
0.0146139
0.0165698
0.0183677
0.0199206
0.0211346
0.0218754
0.0219315
0.021464
0.02061
0.0194884
0.0181827
0.0167583
0.0152687
0.0137601
0.0122735
0.0108449
0.00950305
0.00826777
0.00714918
0.00614912
0.00526365
0.00448543
0.00380546
0.00321424
0.00270233
0.00226074
0.00188101
0.00155531
0.00127647
0.00103791
0.00083362
0.000658021
0.000506606
0.000378971
0.000274516
0.000185317
0.000105854
3.40765e-05
5.09259e-05
0.000147781
0.000278843
0.000439855
0.000606594
0.000777375
0.000958862
0.0011543
0.00136534
0.00159288
0.0018376
0.00210003
0.00238075
0.00268039
0.00299979
0.00334021
0.00370372
0.00409412
0.00451872
0.00499323
0.00555707
0.00629662
0.00722059
0.00833359
0.00965131
0.0111791
0.0129221
0.0148896
0.0168828
0.0187146
0.0202973
0.0215354
0.0222923
0.0223519
0.0218778
0.0210091
0.0198668
0.0185359
0.0170831
0.0155627
0.014022
0.012503
0.0110427
0.00967114
0.00840871
0.00726597
0.00624481
0.0053411
0.00454722
0.00385388
0.0032513
0.00272982
0.00228026
0.00189401
0.0015631
0.00128023
0.00103867
0.000832257
0.000655287
0.000503239
0.000375879
0.000272102
0.000183568