/*--------------------------------*- C++ -*----------------------------------*\
| =========                 |                                                 |
| \\      /  F ield         | OpenFOAM: The Open Source CFD Toolbox           |
|  \\    /   O peration     | Version:  2412                                  |
|   \\  /    A nd           | Website:  www.openfoam.com                      |
|    \\/     M anipulation  |                                                 |
\*---------------------------------------------------------------------------*/
FoamFile
{
    version     2.0;
    format      ascii;
    arch        "LSB;label=32;scalar=64";
    class       volScalarField;
    location    "2000";
    object      p;
}
// * * * * * * * * * * * * * * * * * * * * * * * * * * * * * * * * * * * * * //

dimensions      [0 2 -2 0 0 0 0];

internalField   nonuniform List<scalar> 
32240
(
-2.99302e-05
-2.989e-05
-2.98391e-05
-2.97596e-05
-2.96136e-05
-2.93721e-05
-2.90411e-05
-2.8642e-05
-2.81827e-05
-2.76559e-05
-2.70419e-05
-2.63148e-05
-2.5441e-05
-2.43815e-05
-2.30886e-05
-2.15081e-05
-1.95756e-05
-1.72202e-05
-1.43632e-05
-1.09218e-05
-6.81427e-06
-1.96483e-06
3.68797e-06
1.01935e-05
1.75737e-05
2.58238e-05
3.48845e-05
4.46221e-05
5.48982e-05
6.55348e-05
7.63894e-05
8.74629e-05
9.89777e-05
0.000110334
0.000120787
0.000130469
0.000139376
0.000147486
0.000154777
0.000161251
0.000166929
0.000171853
0.000176078
0.000179668
0.000182693
0.000185221
0.00018732
0.000189051
0.000190474
0.000191638
0.000192589
0.000193367
0.000194006
0.000194534
0.000194977
0.000195355
0.000195681
0.000195963
0.000196197
0.00019637
0.000196477
0.00019653
0.000196558
0.000196581
0.000196605
0.000319217
0.000319253
0.000319319
0.00031943
0.00031962
0.000319916
0.0003203
0.000320723
0.000321143
0.000321534
0.000321877
0.000322156
0.000322347
0.000322425
0.000322356
0.000322105
0.000321625
0.000320868
0.000319779
0.000318304
0.00031639
0.00031399
0.000311081
0.000307683
0.000303843
0.000299639
0.000295155
0.000290457
0.000285597
0.000280576
0.000275394
0.000270158
0.00026495
0.000260164
0.000256077
0.000252592
0.000249668
0.000247275
0.00024538
0.000243944
0.000242915
0.000242239
0.000241857
0.000241712
0.000241753
0.000241932
0.000242211
0.000242558
0.00024295
0.000243365
0.000243792
0.000244219
0.000244642
0.000245056
0.00024546
0.000245851
0.000246226
0.000246572
0.00024687
0.000247093
0.000247233
0.000247309
0.00024735
0.000247375
0.000247389
0.000411065
0.000411101
0.000411159
0.000411254
0.00041142
0.000411689
0.000412052
0.000412478
0.000412945
0.000413442
0.000413968
0.000414526
0.000415119
0.000415751
0.000416424
0.000417143
0.000417908
0.000418724
0.00041959
0.000420511
0.000421488
0.000422523
0.00042363
0.000424855
0.000426265
0.000427921
0.000429842
0.000432028
0.000434463
0.000437089
0.000439864
0.000442864
0.000446271
0.000450011
0.000453805
0.000457635
0.000461442
0.000465165
0.000468744
0.000472131
0.00047529
0.000478197
0.000480841
0.00048322
0.000485341
0.000487216
0.000488863
0.000490301
0.000491552
0.000492636
0.000493576
0.000494388
0.000495092
0.000495704
0.00049624
0.00049671
0.000497122
0.000497475
0.000497761
0.000497966
0.00049809
0.000498157
0.000498194
0.000498217
0.000498234
0.000601194
0.000601232
0.000601294
0.0006014
0.000601586
0.000601884
0.000602276
0.00060272
0.000603186
0.00060366
0.000604134
0.000604607
0.000605076
0.000605536
0.000605983
0.00060641
0.00060681
0.000607175
0.000607496
0.000607768
0.000607983
0.000608144
0.000608264
0.000608403
0.00060866
0.000609108
0.000609771
0.000610663
0.000611785
0.000613094
0.000614569
0.000616298
0.000618423
0.000620822
0.000623235
0.000625639
0.000628012
0.000630332
0.000632579
0.000634737
0.000636789
0.000638719
0.000640519
0.000642179
0.000643697
0.000645075
0.000646316
0.000647429
0.000648422
0.000649307
0.000650095
0.000650796
0.000651424
0.000651987
0.000652498
0.000652962
0.000653385
0.000653762
0.000654076
0.000654308
0.000654452
0.000654528
0.000654568
0.000654594
0.000654612
0.000755117
0.000755154
0.000755217
0.000755321
0.000755503
0.000755794
0.00075618
0.000756623
0.000757098
0.00075759
0.000758098
0.000758621
0.000759161
0.000759717
0.000760289
0.000760877
0.000761481
0.0007621
0.000762734
0.000763385
0.000764056
0.000764757
0.000765511
0.000766385
0.000767493
0.000768919
0.000770684
0.000772801
0.000775268
0.000778037
0.000781086
0.000784505
0.000788446
0.000792658
0.000796744
0.000800693
0.000804484
0.000808094
0.0008115
0.000814686
0.000817638
0.000820348
0.000822814
0.000825039
0.000827031
0.000828802
0.000830366
0.000831741
0.000832947
0.000834001
0.000834922
0.000835728
0.000836435
0.000837059
0.000837613
0.000838107
0.000838548
0.000838932
0.000839247
0.000839476
0.000839616
0.00083969
0.00083973
0.000839756
0.000839774
0.000919582
0.000919621
0.000919685
0.000919793
0.000919985
0.00092029
0.000920692
0.000921153
0.000921643
0.000922149
0.000922668
0.0009232
0.000923744
0.000924301
0.000924869
0.00092545
0.00092604
0.000926641
0.000927251
0.000927874
0.000928514
0.000929182
0.000929907
0.00093076
0.000931858
0.000933292
0.000935091
0.000937271
0.000939834
0.000942729
0.000945939
0.000949556
0.000953726
0.000958147
0.000962384
0.000966433
0.000970283
0.000973923
0.000977344
0.000980535
0.000983492
0.000986208
0.000988684
0.000990924
0.000992934
0.000994727
0.000996315
0.000997717
0.00099895
0.00100003
0.00100098
0.00100181
0.00100255
0.0010032
0.00100377
0.00100429
0.00100476
0.00100517
0.0010055
0.00100575
0.0010059
0.00100598
0.00100602
0.00100605
0.00100607
0.00107626
0.0010763
0.00107636
0.00107648
0.00107667
0.00107698
0.00107739
0.00107786
0.00107836
0.00107887
0.0010794
0.00107995
0.00108051
0.00108109
0.00108169
0.00108231
0.00108295
0.0010836
0.00108429
0.001085
0.00108575
0.00108655
0.00108745
0.00108851
0.00108986
0.00109157
0.0010937
0.00109625
0.00109922
0.00110257
0.00110627
0.00111042
0.00111518
0.00112019
0.00112497
0.00112951
0.00113382
0.00113787
0.00114166
0.00114519
0.00114844
0.00115142
0.00115412
0.00115656
0.00115875
0.00116069
0.0011624
0.00116391
0.00116523
0.00116639
0.0011674
0.00116829
0.00116906
0.00116975
0.00117036
0.00117091
0.00117139
0.00117182
0.00117217
0.00117242
0.00117257
0.00117266
0.0011727
0.00117273
0.00117275
0.00123099
0.00123103
0.0012311
0.00123121
0.00123141
0.00123173
0.00123215
0.00123263
0.00123314
0.00123367
0.00123421
0.00123476
0.00123533
0.00123592
0.00123653
0.00123716
0.0012378
0.00123847
0.00123917
0.0012399
0.00124067
0.00124151
0.00124246
0.0012436
0.00124505
0.00124689
0.00124917
0.0012519
0.0012551
0.00125869
0.00126266
0.00126712
0.00127221
0.00127756
0.00128264
0.00128745
0.001292
0.00129628
0.00130027
0.00130398
0.00130741
0.00131054
0.00131339
0.00131596
0.00131826
0.00132031
0.00132211
0.0013237
0.0013251
0.00132632
0.00132739
0.00132832
0.00132914
0.00132986
0.00133051
0.00133108
0.00133159
0.00133204
0.00133241
0.00133268
0.00133284
0.00133292
0.00133297
0.001333
0.00133302
0.00138098
0.00138102
0.00138109
0.00138121
0.00138142
0.00138175
0.00138217
0.00138266
0.00138318
0.00138372
0.00138427
0.00138483
0.00138542
0.00138602
0.00138664
0.00138728
0.00138795
0.00138864
0.00138936
0.00139012
0.00139094
0.00139183
0.00139287
0.00139413
0.00139571
0.00139773
0.0014002
0.00140316
0.0014066
0.00141046
0.00141473
0.00141951
0.00142497
0.00143067
0.00143608
0.0014412
0.00144603
0.00145056
0.00145479
0.00145872
0.00146234
0.00146565
0.00146866
0.00147137
0.0014738
0.00147596
0.00147786
0.00147954
0.00148101
0.00148229
0.00148342
0.0014844
0.00148526
0.00148602
0.00148669
0.0014873
0.00148784
0.00148831
0.00148869
0.00148897
0.00148914
0.00148923
0.00148927
0.00148931
0.00148933
0.00152693
0.00152697
0.00152704
0.00152717
0.00152738
0.00152771
0.00152815
0.00152864
0.00152917
0.00152972
0.00153027
0.00153085
0.00153144
0.00153205
0.00153268
0.00153333
0.001534
0.0015347
0.00153543
0.0015362
0.00153703
0.00153795
0.00153902
0.00154036
0.00154206
0.0015442
0.00154684
0.00155
0.00155367
0.00155778
0.00156232
0.0015674
0.00157318
0.00157922
0.00158494
0.00159035
0.00159544
0.00160022
0.00160468
0.00160882
0.00161263
0.00161613
0.0016193
0.00162217
0.00162473
0.00162701
0.00162902
0.00163079
0.00163234
0.0016337
0.00163488
0.00163592
0.00163682
0.00163762
0.00163834
0.00163897
0.00163954
0.00164003
0.00164044
0.00164073
0.00164091
0.001641
0.00164105
0.00164108
0.0016411
0.00166803
0.00166807
0.00166815
0.00166827
0.00166849
0.00166884
0.00166928
0.00166979
0.00167033
0.00167089
0.00167146
0.00167205
0.00167266
0.00167328
0.00167393
0.0016746
0.00167529
0.00167601
0.00167676
0.00167755
0.00167841
0.00167937
0.0016805
0.00168193
0.00168376
0.00168606
0.00168888
0.00169225
0.00169615
0.00170052
0.00170534
0.00171072
0.00171684
0.00172321
0.00172924
0.00173493
0.00174029
0.00174531
0.00175
0.00175435
0.00175836
0.00176204
0.00176538
0.00176839
0.00177109
0.00177348
0.0017756
0.00177746
0.00177909
0.00178052
0.00178177
0.00178285
0.00178381
0.00178465
0.0017854
0.00178606
0.00178666
0.00178718
0.0017876
0.00178791
0.00178809
0.00178819
0.00178824
0.00178827
0.0017883
0.00180436
0.00180441
0.00180448
0.00180461
0.00180484
0.00180519
0.00180565
0.00180617
0.00180672
0.00180729
0.00180788
0.00180848
0.0018091
0.00180974
0.0018104
0.00181109
0.0018118
0.00181253
0.0018133
0.00181412
0.001815
0.00181599
0.00181717
0.00181868
0.00182064
0.00182309
0.00182609
0.00182968
0.00183384
0.00183847
0.00184358
0.00184927
0.00185574
0.00186247
0.00186882
0.00187482
0.00188046
0.00188575
0.00189069
0.00189527
0.0018995
0.00190338
0.0019069
0.00191008
0.00191293
0.00191546
0.00191769
0.00191966
0.00192138
0.00192289
0.0019242
0.00192535
0.00192636
0.00192724
0.00192803
0.00192873
0.00192936
0.0019299
0.00193035
0.00193067
0.00193086
0.00193097
0.00193102
0.00193106
0.00193108
0.00193554
0.00193559
0.00193567
0.0019358
0.00193603
0.00193639
0.00193687
0.0019374
0.00193797
0.00193856
0.00193916
0.00193978
0.00194043
0.00194109
0.00194178
0.00194249
0.00194323
0.001944
0.00194481
0.00194567
0.0019466
0.00194764
0.00194889
0.0019505
0.0019526
0.00195522
0.00195842
0.00196224
0.00196665
0.00197157
0.00197697
0.00198299
0.00198982
0.00199691
0.00200359
0.00200989
0.00201582
0.00202138
0.00202657
0.00203139
0.00203584
0.00203991
0.00204362
0.00204697
0.00204997
0.00205263
0.00205499
0.00205706
0.00205888
0.00206046
0.00206185
0.00206306
0.00206412
0.00206505
0.00206588
0.00206662
0.00206727
0.00206785
0.00206832
0.00206865
0.00206885
0.00206896
0.00206902
0.00206905
0.00206908
0.00206178
0.00206182
0.00206191
0.00206204
0.00206228
0.00206265
0.00206314
0.00206368
0.00206426
0.00206486
0.00206548
0.00206611
0.00206677
0.00206745
0.00206815
0.00206888
0.00206964
0.00207043
0.00207127
0.00207216
0.00207313
0.00207422
0.00207554
0.00207726
0.00207949
0.00208228
0.00208568
0.00208974
0.00209442
0.00209963
0.00210534
0.00211171
0.00211891
0.00212638
0.00213342
0.00214005
0.00214628
0.00215213
0.00215759
0.00216266
0.00216735
0.00217164
0.00217555
0.00217908
0.00218225
0.00218506
0.00218755
0.00218974
0.00219165
0.00219333
0.00219479
0.00219606
0.00219718
0.00219817
0.00219904
0.00219982
0.00220051
0.00220111
0.00220161
0.00220196
0.00220217
0.00220228
0.00220234
0.00220238
0.00220241
0.00218268
0.00218273
0.00218281
0.00218295
0.0021832
0.00218358
0.00218408
0.00218464
0.00218524
0.00218585
0.00218648
0.00218713
0.00218781
0.0021885
0.00218922
0.00218997
0.00219075
0.00219157
0.00219244
0.00219337
0.00219439
0.00219555
0.00219697
0.0021988
0.00220118
0.00220415
0.00220777
0.00221207
0.00221704
0.00222254
0.00222859
0.00223531
0.0022429
0.00225077
0.00225817
0.00226514
0.00227169
0.00227784
0.00228357
0.00228891
0.00229383
0.00229835
0.00230247
0.00230619
0.00230952
0.00231248
0.0023151
0.00231741
0.00231943
0.00232119
0.00232273
0.00232407
0.00232524
0.00232628
0.00232719
0.00232801
0.00232874
0.00232938
0.00232989
0.00233026
0.00233048
0.0023306
0.00233066
0.0023307
0.00233073
0.00229825
0.0022983
0.00229838
0.00229853
0.00229878
0.00229918
0.00229969
0.00230026
0.00230087
0.00230149
0.00230214
0.0023028
0.00230348
0.00230419
0.00230492
0.00230568
0.00230648
0.00230732
0.00230821
0.00230918
0.00231024
0.00231147
0.00231298
0.00231494
0.00231747
0.00232062
0.00232446
0.00232903
0.0023343
0.00234013
0.00234652
0.00235362
0.00236164
0.00236993
0.00237772
0.00238505
0.00239194
0.00239841
0.00240445
0.00241006
0.00241525
0.00242002
0.00242436
0.00242828
0.0024318
0.00243493
0.0024377
0.00244013
0.00244226
0.00244413
0.00244575
0.00244716
0.0024484
0.00244949
0.00245046
0.00245132
0.00245209
0.00245275
0.0024533
0.00245368
0.00245391
0.00245403
0.0024541
0.00245414
0.00245417
0.00240818
0.00240824
0.00240832
0.00240847
0.00240873
0.00240914
0.00240966
0.00241025
0.00241086
0.0024115
0.00241216
0.00241283
0.00241353
0.00241425
0.00241499
0.00241577
0.00241659
0.00241745
0.00241837
0.00241938
0.00242049
0.00242179
0.00242341
0.0024255
0.0024282
0.00243155
0.00243563
0.00244048
0.00244606
0.00245223
0.00245899
0.00246649
0.00247495
0.00248368
0.00249188
0.0024996
0.00250685
0.00251365
0.00252
0.00252592
0.00253138
0.00253641
0.00254099
0.00254513
0.00254884
0.00255214
0.00255507
0.00255764
0.00255989
0.00256185
0.00256357
0.00256506
0.00256637
0.00256752
0.00256853
0.00256944
0.00257025
0.00257095
0.00257152
0.00257193
0.00257217
0.00257229
0.00257236
0.00257241
0.00257244
0.00251247
0.00251252
0.00251261
0.00251276
0.00251303
0.00251344
0.00251397
0.00251456
0.00251519
0.00251583
0.00251649
0.00251717
0.00251787
0.0025186
0.00251935
0.00252014
0.00252097
0.00252184
0.00252278
0.00252381
0.00252497
0.00252634
0.00252806
0.00253029
0.00253315
0.00253672
0.00254105
0.0025462
0.0025521
0.00255863
0.00256578
0.00257371
0.00258263
0.00259184
0.00260048
0.0026086
0.00261623
0.00262339
0.00263008
0.00263631
0.00264208
0.00264738
0.00265221
0.00265659
0.00266051
0.00266401
0.0026671
0.00266982
0.0026722
0.00267427
0.00267609
0.00267766
0.00267905
0.00268026
0.00268133
0.00268229
0.00268314
0.00268389
0.00268449
0.00268491
0.00268516
0.0026853
0.00268537
0.00268541
0.00268545
0.00261066
0.00261071
0.0026108
0.00261096
0.00261124
0.00261166
0.00261219
0.00261279
0.00261342
0.00261407
0.00261473
0.00261542
0.00261613
0.00261686
0.00261762
0.00261842
0.00261926
0.00262015
0.00262112
0.00262218
0.00262338
0.00262482
0.00262665
0.00262903
0.00263208
0.00263588
0.00264048
0.00264594
0.00265221
0.00265912
0.00266669
0.00267507
0.0026845
0.0026942
0.0027033
0.00271185
0.00271988
0.00272741
0.00273446
0.00274101
0.00274709
0.00275267
0.00275776
0.00276237
0.00276651
0.0027702
0.00277346
0.00277632
0.00277883
0.00278102
0.00278293
0.00278459
0.00278604
0.00278732
0.00278845
0.00278946
0.00279035
0.00279113
0.00279176
0.00279221
0.00279247
0.0027926
0.00279268
0.00279273
0.00279276
0.0027025
0.00270255
0.00270265
0.00270281
0.00270309
0.00270351
0.00270406
0.00270466
0.0027053
0.00270595
0.00270662
0.00270731
0.00270803
0.00270877
0.00270954
0.00271035
0.0027112
0.00271212
0.0027131
0.00271419
0.00271544
0.00271696
0.00271891
0.00272146
0.00272472
0.00272876
0.00273366
0.00273948
0.00274613
0.00275347
0.00276149
0.00277037
0.00278034
0.00279059
0.00280019
0.00280921
0.00281767
0.00282561
0.00283304
0.00283995
0.00284636
0.00285225
0.00285763
0.00286251
0.00286688
0.00287078
0.00287423
0.00287726
0.00287991
0.00288222
0.00288424
0.00288599
0.00288753
0.00288887
0.00289006
0.00289112
0.00289207
0.00289289
0.00289355
0.00289401
0.00289429
0.00289443
0.00289451
0.00289456
0.0028946
0.00278768
0.00278774
0.00278783
0.002788
0.00278828
0.00278872
0.00278927
0.00278989
0.00279053
0.00279119
0.00279188
0.00279258
0.00279331
0.00279406
0.00279485
0.00279568
0.00279655
0.00279749
0.00279851
0.00279964
0.00280094
0.00280254
0.00280463
0.00280736
0.00281085
0.00281517
0.00282039
0.00282659
0.00283367
0.00284147
0.00284999
0.00285941
0.00286997
0.0028808
0.00289094
0.00290045
0.00290938
0.00291776
0.00292559
0.00293289
0.00293965
0.00294588
0.00295157
0.00295672
0.00296135
0.00296547
0.00296912
0.00297233
0.00297514
0.00297758
0.00297972
0.00298157
0.00298319
0.00298461
0.00298587
0.00298699
0.00298798
0.00298885
0.00298954
0.00299003
0.00299032
0.00299047
0.00299055
0.0029906
0.00299064
0.00286584
0.0028659
0.00286599
0.00286616
0.00286645
0.00286689
0.00286746
0.00286809
0.00286875
0.00286943
0.00287013
0.00287086
0.00287161
0.00287239
0.00287321
0.00287407
0.00287499
0.00287597
0.00287704
0.00287822
0.0028796
0.00288131
0.00288355
0.00288649
0.00289024
0.00289486
0.00290045
0.00290707
0.00291462
0.00292292
0.00293198
0.00294197
0.00295316
0.00296463
0.00297534
0.00298539
0.00299481
0.00300365
0.00301192
0.00301963
0.00302677
0.00303336
0.00303937
0.00304483
0.00304973
0.00305409
0.00305796
0.00306136
0.00306433
0.00306692
0.00306918
0.00307114
0.00307285
0.00307436
0.00307569
0.00307687
0.00307792
0.00307883
0.00307956
0.00308008
0.00308038
0.00308053
0.00308062
0.00308067
0.00308071
0.00293702
0.00293708
0.00293717
0.00293734
0.00293763
0.00293808
0.00293865
0.0029393
0.00293997
0.00294067
0.0029414
0.00294215
0.00294293
0.00294375
0.00294461
0.00294551
0.00294647
0.0029475
0.00294863
0.00294989
0.00295136
0.00295318
0.00295559
0.00295876
0.00296277
0.00296772
0.00297369
0.00298075
0.00298879
0.00299763
0.00300726
0.00301787
0.00302973
0.00304186
0.00305318
0.00306378
0.00307373
0.00308306
0.00309179
0.00309992
0.00310747
0.00311443
0.00312079
0.00312656
0.00313174
0.00313636
0.00314045
0.00314405
0.00314719
0.00314993
0.00315231
0.00315439
0.0031562
0.00315778
0.00315918
0.00316043
0.00316153
0.00316249
0.00316326
0.0031638
0.00316411
0.00316427
0.00316436
0.00316442
0.00316446
0.00300125
0.00300129
0.00300138
0.00300153
0.00300182
0.00300227
0.00300286
0.00300351
0.00300421
0.00300492
0.00300567
0.00300644
0.00300725
0.00300809
0.00300897
0.00300991
0.00301091
0.00301199
0.00301317
0.0030145
0.00301605
0.003018
0.00302058
0.00302396
0.00302825
0.00303353
0.0030399
0.00304742
0.00305597
0.00306536
0.00307559
0.00308684
0.00309941
0.00311224
0.00312421
0.00313541
0.00314592
0.00315577
0.00316499
0.00317359
0.00318157
0.00318893
0.00319567
0.00320178
0.00320727
0.00321217
0.0032165
0.00322031
0.00322364
0.00322654
0.00322907
0.00323126
0.00323318
0.00323485
0.00323633
0.00323765
0.00323882
0.00323983
0.00324063
0.0032412
0.00324153
0.0032417
0.00324179
0.00324185
0.00324189
0.00305837
0.00305842
0.00305851
0.00305867
0.00305897
0.00305944
0.00306005
0.00306072
0.00306142
0.00306215
0.0030629
0.00306367
0.00306448
0.00306533
0.00306622
0.00306716
0.00306817
0.00306927
0.00307048
0.00307185
0.00307348
0.00307553
0.00307826
0.00308185
0.0030864
0.00309201
0.00309878
0.00310677
0.00311586
0.00312582
0.00313667
0.00314861
0.00316192
0.00317549
0.00318814
0.00319998
0.00321107
0.00322148
0.00323122
0.00324031
0.00324876
0.00325655
0.00326368
0.00327015
0.00327597
0.00328117
0.00328576
0.0032898
0.00329333
0.00329641
0.00329909
0.00330141
0.00330343
0.00330521
0.00330677
0.00330816
0.0033094
0.00331046
0.00331131
0.00331191
0.00331225
0.00331242
0.00331252
0.00331258
0.00331262
0.0031075
0.00310756
0.00310767
0.00310786
0.00310818
0.00310867
0.00310929
0.00310997
0.00311068
0.00311142
0.00311217
0.00311295
0.00311377
0.00311462
0.00311551
0.00311647
0.00311749
0.00311861
0.00311985
0.00312127
0.00312297
0.00312515
0.00312805
0.00313187
0.00313671
0.00314268
0.00314988
0.00315838
0.00316804
0.00317863
0.00319015
0.00320282
0.00321692
0.00323129
0.00324467
0.00325717
0.0032689
0.00327989
0.00329019
0.0032998
0.00330874
0.00331698
0.00332454
0.00333139
0.00333756
0.00334307
0.00334794
0.00335222
0.00335596
0.00335922
0.00336205
0.00336452
0.00336666
0.00336853
0.00337018
0.00337165
0.00337295
0.00337408
0.00337497
0.00337559
0.00337595
0.00337613
0.00337623
0.0033763
0.00337634
0.00314805
0.00314812
0.00314823
0.00314842
0.00314875
0.00314926
0.00314988
0.00315058
0.0031513
0.00315205
0.00315282
0.00315362
0.00315445
0.00315532
0.00315624
0.00315722
0.00315828
0.00315944
0.00316074
0.00316224
0.00316405
0.00316638
0.0031695
0.00317358
0.00317875
0.00318512
0.00319281
0.00320187
0.00321216
0.00322342
0.00323568
0.00324913
0.00326409
0.00327931
0.00329347
0.00330669
0.00331909
0.00333072
0.00334161
0.00335178
0.00336124
0.00336997
0.00337798
0.00338525
0.0033918
0.00339763
0.0034028
0.00340734
0.00341132
0.00341477
0.00341778
0.00342038
0.00342265
0.00342463
0.00342638
0.00342793
0.00342931
0.00343049
0.00343144
0.00343209
0.00343246
0.00343265
0.00343276
0.00343282
0.00343287
0.00317997
0.00318004
0.00318016
0.00318035
0.00318069
0.0031812
0.00318184
0.00318255
0.00318328
0.00318404
0.00318482
0.00318563
0.00318648
0.00318737
0.00318831
0.00318932
0.00319042
0.00319162
0.00319298
0.00319455
0.00319648
0.00319898
0.00320231
0.00320668
0.0032122
0.003219
0.00322721
0.00323688
0.00324785
0.00325985
0.00327289
0.00328719
0.00330307
0.0033192
0.00333419
0.00334819
0.0033613
0.0033736
0.00338512
0.00339589
0.00340591
0.00341517
0.00342366
0.00343138
0.00343832
0.00344452
0.00345
0.00345482
0.00345904
0.00346271
0.0034659
0.00346866
0.00347106
0.00347316
0.00347501
0.00347665
0.0034781
0.00347936
0.00348035
0.00348103
0.00348142
0.00348162
0.00348173
0.0034818
0.00348185
0.00320281
0.00320288
0.003203
0.0032032
0.00320355
0.00320407
0.00320472
0.00320543
0.00320618
0.00320694
0.00320774
0.00320856
0.00320942
0.00321032
0.00321129
0.00321232
0.00321345
0.0032147
0.00321612
0.00321778
0.00321983
0.0032225
0.00322608
0.00323075
0.00323665
0.00324392
0.00325269
0.00326302
0.00327472
0.00328751
0.00330139
0.0033166
0.00333347
0.00335058
0.00336646
0.00338128
0.00339516
0.00340818
0.00342038
0.00343178
0.0034424
0.00345222
0.00346122
0.00346941
0.00347679
0.00348337
0.00348919
0.00349431
0.00349879
0.00350268
0.00350606
0.003509
0.00351154
0.00351377
0.00351572
0.00351746
0.003519
0.00352032
0.00352137
0.00352208
0.00352249
0.0035227
0.00352281
0.00352288
0.00352293
0.00321614
0.00321621
0.00321633
0.00321654
0.00321689
0.00321742
0.00321808
0.0032188
0.00321956
0.00322033
0.00322114
0.00322197
0.00322284
0.00322377
0.00322475
0.00322581
0.00322698
0.00322827
0.00322975
0.0032315
0.00323367
0.00323653
0.00324037
0.00324537
0.00325168
0.00325945
0.00326882
0.00327986
0.00329234
0.00330598
0.00332078
0.00333697
0.0033549
0.00337305
0.00338988
0.00340558
0.00342028
0.00343407
0.00344699
0.00345907
0.00347032
0.00348073
0.00349029
0.00349898
0.00350681
0.00351379
0.00351998
0.00352541
0.00353016
0.0035343
0.00353788
0.00354099
0.00354368
0.00354603
0.0035481
0.00354993
0.00355156
0.00355295
0.00355405
0.0035548
0.00355523
0.00355544
0.00355555
0.00355563
0.00355569
0.00321948
0.00321955
0.00321968
0.00321989
0.00322025
0.00322079
0.00322146
0.00322219
0.00322295
0.00322373
0.00322454
0.00322539
0.00322627
0.00322721
0.00322822
0.0032293
0.0032305
0.00323185
0.00323339
0.00323522
0.00323753
0.00324059
0.00324469
0.00325005
0.0032568
0.00326511
0.00327513
0.00328693
0.00330026
0.00331482
0.0033306
0.00334784
0.00336691
0.00338619
0.00340404
0.00342068
0.00343626
0.00345087
0.00346457
0.00347739
0.00348933
0.00350039
0.00351055
0.00351979
0.00352811
0.00353554
0.00354212
0.00354791
0.00355296
0.00355736
0.00356117
0.00356447
0.00356734
0.00356983
0.00357203
0.00357397
0.00357569
0.00357717
0.00357833
0.00357912
0.00357956
0.00357979
0.00357991
0.00357999
0.00358004
0.00321219
0.00321226
0.00321239
0.00321261
0.00321297
0.00321352
0.0032142
0.00321494
0.00321571
0.00321651
0.00321733
0.00321818
0.00321909
0.00322004
0.00322107
0.00322219
0.00322343
0.00322483
0.00322644
0.00322837
0.00323083
0.00323411
0.00323852
0.00324425
0.00325148
0.00326037
0.00327111
0.00328373
0.00329798
0.00331353
0.00333036
0.00334873
0.00336902
0.00338951
0.00340845
0.0034261
0.00344262
0.00345811
0.00347263
0.00348623
0.00349891
0.00351065
0.00352144
0.00353126
0.00354011
0.00354802
0.00355502
0.00356117
0.00356654
0.00357122
0.00357527
0.00357878
0.00358182
0.00358447
0.00358679
0.00358885
0.00359067
0.00359223
0.00359346
0.00359429
0.00359475
0.00359498
0.0035951
0.00359519
0.00359525
0.00319375
0.00319383
0.00319396
0.00319418
0.00319455
0.00319511
0.0031958
0.00319655
0.00319732
0.00319813
0.00319896
0.00319983
0.00320075
0.00320173
0.00320279
0.00320394
0.00320523
0.00320669
0.00320838
0.00321043
0.00321305
0.00321657
0.00322129
0.00322744
0.00323518
0.00324471
0.00325621
0.00326972
0.00328497
0.00330158
0.00331955
0.00333914
0.00336073
0.0033825
0.00340261
0.00342133
0.00343885
0.00345528
0.00347069
0.00348512
0.00349858
0.00351106
0.00352253
0.00353298
0.00354239
0.0035508
0.00355825
0.0035648
0.00357052
0.00357549
0.0035798
0.00358352
0.00358675
0.00358957
0.00359203
0.00359421
0.00359614
0.00359779
0.00359909
0.00359995
0.00360044
0.00360068
0.00360081
0.00360089
0.00360096
0.00316358
0.00316366
0.00316379
0.00316402
0.0031644
0.00316496
0.00316566
0.00316641
0.0031672
0.00316801
0.00316886
0.00316975
0.00317068
0.00317169
0.00317278
0.00317397
0.00317531
0.00317684
0.00317863
0.0031808
0.0031836
0.00318738
0.00319245
0.00319904
0.00320734
0.00321756
0.00322988
0.00324435
0.00326066
0.00327842
0.00329761
0.0033185
0.00334149
0.00336464
0.00338599
0.00340586
0.00342444
0.00344187
0.00345822
0.00347353
0.00348783
0.00350109
0.00351328
0.00352439
0.00353441
0.00354335
0.00355127
0.00355823
0.00356431
0.0035696
0.00357418
0.00357814
0.00358156
0.00358454
0.00358716
0.00358947
0.00359151
0.00359325
0.00359461
0.00359552
0.00359603
0.00359627
0.00359641
0.0035965
0.00359657
0.00312113
0.00312121
0.00312134
0.00312157
0.00312196
0.00312254
0.00312324
0.003124
0.0031248
0.00312562
0.00312647
0.00312738
0.00312833
0.00312936
0.00313049
0.00313173
0.00313312
0.00313472
0.00313661
0.00313891
0.00314189
0.00314594
0.00315139
0.00315845
0.00316735
0.00317829
0.00319149
0.00320699
0.00322445
0.00324344
0.00326394
0.00328623
0.00331072
0.00333534
0.00335802
0.00337912
0.00339885
0.00341734
0.00343471
0.00345098
0.00346618
0.00348029
0.00349327
0.0035051
0.00351577
0.0035253
0.00353375
0.00354117
0.00354765
0.00355328
0.00355816
0.00356237
0.00356602
0.00356919
0.00357196
0.00357441
0.00357658
0.00357843
0.00357987
0.00358082
0.00358134
0.0035816
0.00358174
0.00358184
0.00358191
0.00306574
0.00306582
0.00306596
0.0030662
0.00306659
0.00306717
0.00306788
0.00306865
0.00306944
0.00307027
0.00307114
0.00307205
0.00307302
0.00307408
0.00307523
0.00307651
0.00307796
0.00307963
0.00308161
0.00308405
0.00308723
0.00309156
0.00309739
0.00310496
0.00311449
0.00312621
0.00314036
0.00315697
0.00317566
0.00319598
0.00321788
0.00324166
0.00326775
0.00329394
0.00331805
0.00334045
0.0033614
0.00338104
0.00339948
0.00341677
0.00343294
0.00344795
0.00346177
0.00347437
0.00348574
0.0034959
0.00350489
0.0035128
0.00351971
0.00352571
0.00353091
0.0035354
0.00353928
0.00354265
0.00354559
0.0035482
0.00355049
0.00355245
0.00355397
0.00355497
0.00355552
0.00355579
0.00355593
0.00355603
0.0035561
0.00299653
0.00299661
0.00299675
0.00299699
0.00299739
0.00299798
0.00299869
0.00299947
0.00300028
0.00300112
0.00300199
0.00300292
0.00300392
0.003005
0.00300619
0.00300751
0.00300902
0.00301077
0.00301285
0.00301543
0.00301882
0.00302346
0.0030297
0.0030378
0.00304801
0.00306058
0.00307575
0.00309355
0.00311357
0.0031353
0.00315871
0.00318409
0.0032119
0.00323976
0.00326538
0.00328918
0.00331142
0.00333228
0.00335188
0.00337026
0.00338746
0.00340343
0.00341815
0.00343158
0.0034437
0.00345454
0.00346413
0.00347256
0.00347993
0.00348633
0.00349187
0.00349665
0.00350078
0.00350437
0.0035075
0.00351026
0.0035127
0.00351478
0.00351638
0.00351744
0.003518
0.00351828
0.00351843
0.00351853
0.00351861
0.00291273
0.00291281
0.00291296
0.0029132
0.00291361
0.0029142
0.00291492
0.0029157
0.00291652
0.00291737
0.00291825
0.0029192
0.00292021
0.00292131
0.00292253
0.0029239
0.00292546
0.00292729
0.00292948
0.00293221
0.00293582
0.00294078
0.00294747
0.00295615
0.00296709
0.00298057
0.00299683
0.00301592
0.00303737
0.00306063
0.00308567
0.00311277
0.00314241
0.00317206
0.0031993
0.00322459
0.00324821
0.00327037
0.00329118
0.00331073
0.00332901
0.00334602
0.00336169
0.003376
0.00338892
0.00340046
0.00341069
0.00341968
0.00342753
0.00343435
0.00344026
0.00344535
0.00344975
0.00345357
0.0034569
0.00345984
0.00346243
0.00346463
0.00346632
0.00346743
0.00346802
0.00346831
0.00346846
0.00346857
0.00346865
0.00281315
0.00281323
0.00281338
0.00281363
0.00281405
0.00281465
0.00281538
0.00281618
0.00281701
0.00281787
0.00281878
0.00281975
0.0028208
0.00282194
0.0028232
0.00282463
0.00282627
0.0028282
0.00283053
0.00283344
0.0028373
0.00284262
0.0028498
0.00285911
0.00287086
0.00288532
0.00290278
0.00292327
0.00294626
0.00297117
0.00299795
0.0030269
0.0030585
0.00309007
0.00311904
0.00314591
0.00317102
0.00319457
0.0032167
0.00323749
0.00325695
0.00327507
0.00329178
0.00330704
0.00332082
0.00333314
0.00334405
0.00335364
0.00336202
0.0033693
0.0033756
0.00338103
0.00338572
0.00338978
0.00339333
0.00339645
0.0033992
0.00340153
0.00340332
0.00340448
0.0034051
0.00340539
0.00340555
0.00340567
0.00340575
0.00269713
0.00269722
0.00269737
0.00269763
0.00269805
0.00269866
0.00269941
0.00270022
0.00270106
0.00270195
0.00270288
0.00270388
0.00270496
0.00270615
0.00270747
0.00270896
0.00271069
0.00271273
0.00271519
0.0027183
0.00272244
0.00272814
0.00273585
0.00274584
0.00275845
0.00277397
0.00279272
0.0028147
0.00283936
0.00286605
0.0028947
0.00292562
0.00295932
0.00299293
0.00302374
0.0030523
0.00307897
0.003104
0.00312753
0.00314965
0.00317038
0.00318968
0.0032075
0.00322378
0.00323848
0.00325163
0.00326328
0.00327353
0.00328247
0.00329024
0.00329697
0.00330277
0.00330777
0.0033121
0.00331588
0.00331921
0.00332213
0.00332461
0.00332651
0.00332772
0.00332837
0.00332867
0.00332884
0.00332895
0.00332904
0.00256363
0.00256372
0.00256388
0.00256414
0.00256457
0.0025652
0.00256596
0.00256678
0.00256765
0.00256856
0.00256952
0.00257056
0.00257168
0.00257292
0.0025743
0.00257588
0.0025777
0.00257987
0.00258249
0.00258581
0.00259025
0.00259638
0.00260464
0.00261537
0.0026289
0.00264557
0.0026657
0.0026893
0.00271574
0.00274433
0.00277497
0.002808
0.00284393
0.0028797
0.00291246
0.00294282