/*--------------------------------*- C++ -*----------------------------------*\
| =========                 |                                                 |
| \\      /  F ield         | OpenFOAM: The Open Source CFD Toolbox           |
|  \\    /   O peration     | Version:  2412                                  |
|   \\  /    A nd           | Website:  www.openfoam.com                      |
|    \\/     M anipulation  |                                                 |
\*---------------------------------------------------------------------------*/
FoamFile
{
    version     2.0;
    format      ascii;
    arch        "LSB;label=32;scalar=64";
    class       surfaceScalarField;
    location    "2000";
    object      phi;
}
// * * * * * * * * * * * * * * * * * * * * * * * * * * * * * * * * * * * * * //

dimensions      [0 3 -1 0 0 0 0];

oriented        oriented;

internalField   nonuniform List<scalar> 
63919
(
1.07034e-05
-0.00111102
3.77422e-05
-0.00377777
8.00678e-05
-0.00710829
0.000132023
-0.0107248
0.00018854
-0.0141319
0.000248814
-0.0173223
0.000314514
-0.0204942
0.000386566
-0.0238125
0.000466856
-0.0273896
0.000556089
-0.0313099
0.000656302
-0.0356447
0.000767942
-0.0404611
0.000893383
-0.0458265
0.00103286
-0.0518105
0.001189
-0.0584868
0.00136181
-0.0659331
0.00155408
-0.0742313
0.00176499
-0.0834673
0.00199711
-0.0937287
0.00224824
-0.105104
0.00252003
-0.117679
0.00280743
-0.131532
0.00311023
-0.146733
0.0034182
-0.163334
0.00372691
-0.181365
0.00402172
-0.200854
0.0042999
-0.221843
0.00454819
-0.244394
0.00476228
-0.268577
0.00492709
-0.294447
0.00502698
-0.322008
0.00503867
-0.351182
0.00492994
-0.381786
0.00472789
-0.339304
0.00446407
-0.30158
0.0041664
-0.268118
0.00384981
-0.238444
0.00353075
-0.212121
0.00321552
-0.188758
0.0029133
-0.168007
0.00262552
-0.149561
0.00235713
-0.133152
0.00210693
-0.118543
0.00187752
-0.105527
0.00166648
-0.093924
0.00147511
-0.0835742
0.00130056
-0.0743377
0.00114353
-0.0660911
0.00100116
-0.0587251
0.000873771
-0.0521428
0.000758728
-0.0462579
0.000656192
-0.0409928
0.000563821
-0.0362777
0.000481661
-0.0320489
0.000407675
-0.0282467
0.000341811
-0.0248137
0.000282339
-0.0216911
0.000228985
-0.0188134
0.000180176
-0.0160991
0.000135361
-0.0134386
9.34825e-05
-0.0106971
5.63096e-05
-0.00781973
2.70781e-05
-0.00502628
7.67071e-06
-0.00264174
-0.000773497
4.42389e-06
-0.00111553
2.35987e-05
-0.00379708
6.25466e-05
-0.00714736
0.000117554
-0.0107799
0.000181962
-0.0141963
0.000254518
-0.0173949
0.00033597
-0.0205757
0.000427539
-0.0239041
0.000530521
-0.0274927
0.000646151
-0.0314256
0.000775784
-0.0357744
0.000920632
-0.0406061
0.00108211
-0.045988
0.00126117
-0.0519898
0.00145914
-0.0586848
0.00167652
-0.0661507
0.00191429
-0.0744691
0.00217183
-0.0837252
0.00244915
-0.0940061
0.00274385
-0.105399
0.00305406
-0.117989
0.00337446
-0.131853
0.00370007
-0.147058
0.00402181
-0.163656
0.00433068
-0.181674
0.00461682
-0.20114
0.00487558
-0.222101
0.00510052
-0.244619
0.00528674
-0.268762
0.00542425
-0.294584
0.00549935
-0.322082
0.00549303
-0.351174
0.00538262
-0.381675
0.00518603
-0.339106
0.00492834
-0.301322
0.00463105
-0.26782
0.0043099
-0.238123
0.00397852
-0.211789
0.00364579
-0.188425
0.0033198
-0.167681
0.00300483
-0.149247
0.00270536
-0.132852
0.0024228
-0.11826
0.00215931
-0.105264
0.00191462
-0.0936796
0.00168955
-0.083349
0.00148297
-0.0741314
0.0012949
-0.065903
0.00112385
-0.0585543
0.000969423
-0.0519884
0.000830083
-0.0461187
0.000705219
-0.0408679
0.000593393
-0.0361661
0.00049392
-0.0319494
0.000405538
-0.0281584
0.000327556
-0.0247357
0.000258923
-0.0216226
0.00019893
-0.0187535
0.000146685
-0.016047
0.000101381
-0.0133934
6.28003e-05
-0.0106585
3.18507e-05
-0.00778908
1.14749e-05
-0.00500616
1.81095e-06
-0.00263221
-0.000771686
6.40891e-06
-0.00112197
2.66559e-05
-0.0038174
6.30239e-05
-0.00718374
0.000111535
-0.0108285
0.000166671
-0.0142515
0.000227587
-0.0174558
0.000295437
-0.0206435
0.000371424
-0.0239801
0.000456939
-0.0275781
0.000553099
-0.0315218
0.000661316
-0.0358825
0.000782666
-0.0407275
0.00091865
-0.0461239
0.00107032
-0.0521415
0.00123923
-0.0588536
0.00142616
-0.0663378
0.00163246
-0.0746754
0.00185835
-0.0839512
0.00210445
-0.0942521
0.00236958
-0.105664
0.00265273
-0.118272
0.00295021
-0.132151
0.00325796
-0.147366
0.0035682
-0.163966
0.00387299
-0.181979
0.00416387
-0.201432
0.00443511
-0.222372
0.00467938
-0.244863
0.00488922
-0.268972
0.00505288
-0.294748
0.00515406
-0.322183
0.00517028
-0.351191
0.0050729
-0.381578
0.00487901
-0.338912
0.00462058
-0.301064
0.00432236
-0.267522
0.00400253
-0.237803
0.00367536
-0.211462
0.00335043
-0.188101
0.00303539
-0.167366
0.00273444
-0.148946
0.00245115
-0.132569
0.00218664
-0.117996
0.00194218
-0.105019
0.00171726
-0.0934549
0.00151195
-0.0831436
0.00132497
-0.0739446
0.00115585
-0.0657338
0.00100303
-0.0584016
0.000865843
-0.0518511
0.000742704
-0.0459957
0.000632878
-0.040758
0.00053491
-0.0360682
0.000448084
-0.0318625
0.000371119
-0.0280815
0.00030333
-0.0246679
0.000243585
-0.0215629
0.000191145
-0.018701
0.000144884
-0.0160007
0.000103862
-0.0133523
6.74306e-05
-0.010622
3.71077e-05
-0.00775874
1.58219e-05
-0.00498486
3.89966e-06
-0.00262028
-0.000767787
6.19819e-06
-0.00112817
2.72495e-05
-0.00383847
6.57827e-05
-0.00722226
0.000117578
-0.0108803
0.000177054
-0.0143109
0.00024327
-0.017522
0.000317132
-0.0207173
0.000399747
-0.0240627
0.00049239
-0.0276707
0.000596169
-0.0316256
0.000712419
-0.0359987
0.000842248
-0.0408574
0.000987075
-0.0462687
0.00114791
-0.0523024
0.00132616
-0.0590318
0.00152257
-0.0665342
0.00173826
-0.0748909
0.00197327
-0.0841863
0.00222793
-0.0945066
0.00250089
-0.105938
0.0027907
-0.118562
0.00309349
-0.132454
0.00340463
-0.147677
0.00371619
-0.164278
0.00402036
-0.182283
0.00430963
-0.201721
0.00457862
-0.222641
0.00482065
-0.245105
0.00502851
-0.26918
0.00519113
-0.294911
0.00529277
-0.322285
0.00531235
-0.35121
0.00522344
-0.381489
0.00503985
-0.338729
0.00479098
-0.300815
0.00450028
-0.267231
0.00418537
-0.237488
0.0038602
-0.211137
0.00353454
-0.187775
0.00321607
-0.167047
0.00290955
-0.148639
0.00261875
-0.132278
0.00234538
-0.117723
0.00209092
-0.104765
0.00185535
-0.0932195
0.00163892
-0.0829271
0.00144072
-0.0737465
0.00126037
-0.0655533
0.00109659
-0.058238
0.000948712
-0.0517032
0.000815349
-0.0458624
0.000695749
-0.0406383
0.000588567
-0.0359611
0.000493064
-0.0317669
0.000408026
-0.0279966
0.000332758
-0.0245926
0.0002662
-0.0214964
0.000207645
-0.0186424
0.000156093
-0.0159492
0.000110761
-0.013307
7.1128e-05
-0.0105824
3.85876e-05
-0.00772618
1.58631e-05
-0.00496212
3.55178e-06
-0.00260796
-0.000764235
6.24536e-06
-0.00113439
2.68865e-05
-0.00385908
6.4554e-05
-0.00725988
0.000115089
-0.0109308
0.000172718
-0.0143685
0.000236612
-0.0175859
0.00030777
-0.0207885
0.0003874
-0.0241424
0.000476812
-0.0277601
0.000577177
-0.031726
0.000689834
-0.0361114
0.000815931
-0.0409835
0.000956875
-0.0464096
0.00111378
-0.0524594
0.00128803
-0.059206
0.00148049
-0.0667267
0.0016923
-0.0751027
0.00192373
-0.0844178
0.00217513
-0.0947579
0.00244546
-0.106208
0.00273335
-0.118849
0.00303529
-0.132756
0.00334673
-0.147988
0.00365981
-0.164591
0.00396694
-0.18259
0.00426115
-0.202015
0.00453698
-0.222917
0.00478773
-0.245356
0.00500566
-0.269398
0.00517925
-0.295084
0.00529191
-0.322398
0.00532147
-0.35124
0.0052397
-0.381407
0.00505874
-0.338548
0.00480961
-0.300566
0.00451678
-0.266939
0.00419881
-0.23717
0.00387009
-0.210808
0.00354094
-0.187446
0.00321913
-0.166725
0.00290974
-0.14833
0.00261642
-0.131985
0.00234104
-0.117448
0.00208494
-0.104508
0.0018482
-0.0929828
0.0016309
-0.0827098
0.00143221
-0.0735479
0.0012516
-0.0653727
0.00108786
-0.0580743
0.000940199
-0.0515555
0.000807278
-0.0457296
0.000688258
-0.0405193
0.000581838
-0.0358547
0.000487206
-0.0316723
0.00040317
-0.0279126
0.000328954
-0.0245183
0.000263478
-0.0214309
0.000205939
-0.0185848
0.000155261
-0.0158985
0.000110508
-0.0132622
7.11344e-05
-0.010543
3.86608e-05
-0.00769371
1.60549e-05
-0.00493951
3.72121e-06
-0.00259562
-0.000760514
6.27999e-06
-0.00114061
2.73058e-05
-0.00388003
6.56205e-05
-0.00729811
0.000116917
-0.0109821
0.00017555
-0.0144271
0.000240642
-0.017651
0.000313162
-0.0208609
0.000394292
-0.0242235
0.000485318
-0.0278511
0.000587405
-0.0318281
0.000701867
-0.0362258
0.000829881
-0.0411115
0.000972819
-0.0465525
0.00113182
-0.0526184
0.00130821
-0.0593823
0.00150293
-0.0669215
0.00171704
-0.0753167
0.00195086
-0.0846517
0.00220467
-0.0950117
0.00247754
-0.106481
0.00276804
-0.11914
0.00307283
-0.13306
0.00338729
-0.148303
0.00370371
-0.164908
0.00401456
-0.182901
0.00431337
-0.202314
0.00459474
-0.223198
0.00485214
-0.245614
0.00507754
-0.269623
0.00525927
-0.295266
0.00538037
-0.322519
0.00541839
-0.351278
0.00534472
-0.381334
0.00516928
-0.338372
0.00492327
-0.30032
0.00463136
-0.266647
0.00431251
-0.236852
0.0039813
-0.210477
0.00364845
-0.187113
0.0033219
-0.166399
0.00300704
-0.148015
0.00270768
-0.131685
0.00242597
-0.117166
0.00216329
-0.104246
0.00191996
-0.0927395
0.00169609
-0.0824859
0.00149103
-0.0733429
0.00130423
-0.0651858
0.00113461
-0.0579047
0.000981352
-0.0514022
0.000843199
-0.0455915
0.000719272
-0.0403953
0.00060832
-0.0357438
0.00050948
-0.0315734
0.000421596
-0.0278247
0.000343853
-0.0244406
0.000275201
-0.0213623
0.00021482
-0.0185244
0.000161663
-0.0158454
0.000114812
-0.0132153
7.37053e-05
-0.0105019
3.9969e-05
-0.00765991
1.6511e-05
-0.004916
3.77416e-06
-0.00258286
-0.00075674
6.3696e-06
-0.00114691
2.75962e-05
-0.00390115
6.6304e-05
-0.0073367
0.000118068
-0.0110338
0.000177072
-0.014486
0.000242443
-0.0177163
0.000315162
-0.0209336
0.000396453
-0.0243048
0.00048761
-0.0279422
0.000589842
-0.0319303
0.000704464
-0.0363404
0.000832692
-0.0412397
0.000975891
-0.0466956
0.00113526
-0.0527777
0.00131212
-0.0595591
0.00150745
-0.0671168
0.0017223
-0.0755315
0.00195708
-0.0848865
0.00221203
-0.0952665
0.00248635
-0.106755
0.00277864
-0.119432
0.00308573
-0.133368
0.00340308
-0.14862
0.00372319
-0.165228
0.00403865
-0.183216
0.00434337
-0.202619
0.00463196
-0.223487
0.00489787
-0.24588
0.00513275
-0.269858
0.0053245
-0.295458
0.00545559
-0.32265
0.00550278
-0.351325
0.00543645
-0.381267
0.00526458
-0.338201
0.00501926
-0.300074
0.0047258
-0.266353
0.0044038
-0.23653
0.00406828
-0.210141
0.0037304
-0.186775
0.00339833
-0.166067
0.00307775
-0.147695
0.00277256
-0.13138
0.0024851
-0.116879
0.0022168
-0.103977
0.0019681
-0.0924909
0.00173908
-0.0822568
0.00152919
-0.073133
0.00133786
-0.0649945
0.00116407
-0.057731
0.00100696
-0.051245
0.000865311
-0.0454499
0.000738193
-0.0402681
0.000624392
-0.03563
0.000522984
-0.0314719
0.00043284
-0.0277346
0.000353089
-0.0243608
0.00028269
-0.0212919
0.000220754
-0.0184625
0.00016621
-0.0157908
0.000118068
-0.0131671
7.57747e-05
-0.0104596
4.1063e-05
-0.00762515
1.69744e-05
-0.00489187
3.8974e-06
-0.00256976
-0.000752842
6.42939e-06
-0.00115329
2.78656e-05
-0.00392251
6.70809e-05
-0.00737584
0.000119561
-0.0110862
0.000179269
-0.0145457
0.000245372
-0.0177824
0.00031884
-0.0210071
0.00040092
-0.0243868
0.000492919
-0.0280342
0.000596065
-0.0320334
0.00071168
-0.036456
0.000841016
-0.0413691
0.000985436
-0.04684
0.00114617
-0.0529385
0.00132452
-0.0597375
0.00152154
-0.0673139
0.00173822
-0.0757481
0.00197504
-0.0851233
0.00223221
-0.0955237
0.00250901
-0.107032
0.00280399
-0.119727
0.00311419
-0.133678
0.00343508
-0.148941
0.00375938
-0.165552
0.00407989
-0.183537
0.00439091
-0.20293
0.00468706
-0.223783
0.0049618
-0.246155
0.00520644
-0.270103
0.00540845
-0.29566
0.00554977
-0.322791
0.00560648
-0.351382
0.00554811
-0.381209
0.00538052
-0.338033
0.00513649
-0.29983
0.00484192
-0.266059
0.00451701
-0.236205
0.00417717
-0.209802
0.00383399
-0.186432
0.00349592
-0.165729
0.00316891
-0.147368
0.00285704
-0.131068
0.00256285
-0.116584
0.00228783
-0.103702
0.00203257
-0.0922356
0.00179719
-0.0820214
0.00158124
-0.0729171
0.00138415
-0.0647974
0.00120495
-0.0575518
0.00104278
-0.0510828
0.000896455
-0.0453036
0.000765018
-0.0401367
0.000647277
-0.0355123
0.000542275
-0.0313669
0.000448889
-0.0276412
0.000366213
-0.0242781
0.000293198
-0.0212189
0.000228934
-0.0183982
0.000172339
-0.0157342
0.000122391
-0.0131172
7.85693e-05
-0.0104158
4.25631e-05
-0.00758916
1.75773e-05
-0.00486689
4.02072e-06
-0.00255621
-0.000748821
6.46329e-06
-0.00115975
2.81668e-05
-0.00394423
6.78347e-05
-0.00741549
0.000120798
-0.0111392
0.000181022
-0.0146059
0.000247639
-0.017849
0.000321639
-0.021081
0.000404289
-0.0244695
0.000496905
-0.0281268
0.000600747
-0.0321373
0.000717145
-0.0365723
0.000847379
-0.0414993
0.000992816
-0.0469854
0.00115472
-0.0531004
0.00133442
-0.0599171
0.00153297
-0.0675124
0.00175139
-0.0759665
0.00199019
-0.0853622
0.00224959
-0.0957831
0.00252893
-0.107311
0.00282676
-0.120025
0.00314024
-0.133991
0.0034649
-0.149266
0.0037937
-0.165881
0.00411977
-0.183863
0.00443768
-0.203248
0.00474212
-0.224088
0.00502636
-0.246439
0.00528143
-0.270358
0.00549429
-0.295873
0.00564633
-0.322944
0.00571282
-0.351448
0.00566233
-0.381158
0.00549867
-0.337869
0.00525544
-0.299587
0.00495922
-0.265762
0.00463083
-0.235876
0.00428618
-0.209457
0.00393727
-0.186083
0.00359284
-0.165384
0.00325913
-0.147034
0.00294039
-0.130749
0.00263931
-0.116283
0.00235751
-0.103421
0.00209566
-0.0919738
0.00185395
-0.0817797
0.00163197
-0.0726952
0.00142919
-0.0645946
0.00124467
-0.0573673
0.00107754
-0.0509156
0.000926657
-0.0451527
0.000791022
-0.040001
0.000669463
-0.0353908
0.00056099
-0.0312584
0.000464481
-0.0275447
0.000378998
-0.0241926
0.000303489
-0.0211434
0.000236996
-0.0183317
0.000178411
-0.0156756
0.000126674
-0.0130654
8.12451e-05
-0.0103704
4.3986e-05
-0.00755189
1.8159e-05
-0.00484106
4.15526e-06
-0.0025422
-0.000744666
6.50451e-06
-0.00116628
2.85103e-05
-0.00396629
6.86142e-05
-0.00745563
0.000121996
-0.0111926
0.000182711
-0.0146666
0.000249842
-0.0179162
0.00032439
-0.0211556
0.000407649
-0.0245528
0.000500948
-0.0282201
0.000605568
-0.0322419
0.000722848
-0.0366896
0.00085409
-0.0416306
0.00100068
-0.047132
0.0011639
-0.0532636
0.00134508
-0.0600983
0.00154534
-0.0677127
0.0017657
-0.0761869
0.00200674
-0.0856032
0.00226867
-0.096045
0.0025509
-0.107594
0.00285198
-0.120326
0.00316912
-0.134309
0.00349785
-0.149594
0.00383144
-0.166215
0.00416344
-0.184195
0.0044887
-0.203573
0.0048019
-0.224401
0.00509616
-0.246733
0.00536218
-0.270624
0.0055864
-0.296097
0.00574962
-0.323107
0.00582634
-0.351525
0.0057841
-0.381116
0.00562458
-0.33771
0.00538219
-0.299345
0.00508426
-0.265465
0.00475222
-0.235544
0.00440251
-0.209107
0.00404753
-0.185728
0.00369639
-0.165033
0.00335556
-0.146693
0.00302952
-0.130423
0.00272112
-0.115975
0.0024321
-0.103131
0.00216323
-0.091705
0.00191475
-0.0815312
0.00168634
-0.0724668
0.00147747
-0.0643857
0.00128726
-0.0571771
0.00111482
-0.0507432
0.000959037
-0.044997
0.000818893
-0.0398609
0.000693226
-0.0352652
0.000581014
-0.0311462
0.000481143
-0.0274449
0.000392634
-0.0241041
0.000314428
-0.0210652
0.000245536
-0.0182628
0.00018483
-0.015615
0.000131211
-0.0130118
8.41579e-05
-0.0103233
4.55486e-05
-0.00751332
1.88005e-05
-0.00481435
4.29875e-06
-0.00252772
-0.000740367
6.55436e-06
-0.00117287
2.86431e-05
-0.00398843
6.9032e-05
-0.00749605
0.000122838
-0.0112464
0.000183937
-0.0147277
0.000251478
-0.0179837
0.00032649
-0.0212306
0.000410282
-0.0246366
0.00050419
-0.028314
0.000609515
-0.0323472
0.000727603
-0.0368077
0.000859775
-0.0417627
0.00100742
-0.0472797
0.00117186
-0.0534281
0.00135445
-0.0602809
0.00155634
-0.0679146
0.00177859
-0.0764091
0.00202186
-0.0858465
0.00228638
-0.0963095
0.00257165
-0.107879
0.00287624
-0.12063
0.00319735
-0.13463
0.00353049
-0.149927
0.00386925
-0.166553
0.00420771
-0.184533
0.00454088
-0.203906
0.00486342
-0.224723
0.00516824
-0.247038
0.00544572
-0.270901
0.00568179
-0.296333
0.0058566
-0.323282
0.00594386
-0.351612
0.00591001
-0.381082
0.00575464
-0.337554
0.00551301
-0.299103
0.00521321
-0.265165
0.00487732
-0.235208
0.00452232
-0.208752
0.00416104
-0.185367
0.00380293
-0.164675
0.00345477
-0.146345
0.00312119
-0.13009
0.00280525
-0.115659
0.00250879
-0.102835
0.00223269
-0.0914289
0.00197726
-0.0812758
0.00174224
-0.0722318
0.00152712
-0.0641706
0.00133106
-0.0569811
0.00115318
-0.0505653
0.000992372
-0.0448362
0.00084761
-0.0397161
0.000717734
-0.0351353
0.000601699
-0.0310302
0.000498379
-0.0273416
0.000406771
-0.0240124
0.000325797
-0.0209843
0.000254437
-0.0181914
0.000191531
-0.0155521
0.000135941
-0.0129562
8.7158e-05
-0.0102745
4.71451e-05
-0.00747334
1.94526e-05
-0.00478668
4.44688e-06
-0.00251273
-0.000735921
6.63029e-06
-0.00117949
2.88562e-05
-0.00401065
6.96432e-05
-0.00753682
0.000123995
-0.0113008
0.000185567
-0.0147893
0.000253592
-0.0180518
0.000329114
-0.0213061
0.00041347
-0.0247209
0.000508011
-0.0284086
0.000614052
-0.0324533
0.000732945
-0.0369266
0.000866036
-0.0418958
0.00101472
-0.0474283
0.00118035
-0.0535937
0.00136429
-0.0604648
0.00156776
-0.0681181
0.00179185
-0.0766332
0.00203728
-0.086092
0.00230438
-0.0965766
0.00259271
-0.108167
0.0029009
-0.120939
0.0032262
-0.134955
0.00356402
-0.150265
0.00390832
-0.166898
0.00425366
-0.184879
0.00459523
-0.204248
0.00492758
-0.225056
0.00524347
-0.247354
0.00553293
-0.271191
0.00578135
-0.296581
0.00596824
-0.323468
0.00606645
-0.351711
0.00604131
-0.381057
0.0058902
-0.337403
0.0056493
-0.298862
0.00534749
-0.264863
0.00500753
-0.234868
0.00464697
-0.208392
0.0042791
-0.184999
0.00391372
-0.16431
0.00355788
-0.145989
0.00321646
-0.129748
0.00289265
-0.115335
0.00258844
-0.102531
0.00230482
-0.0911453
0.00204215
-0.0810131
0.00180025
-0.0719899
0.00157861
-0.0639489
0.00137646
-0.056779
0.0011929
-0.0503817
0.00102685
-0.0446701
0.000877269
-0.0395665
0.000742991
-0.035001
0.000622952
-0.0309101
0.000516021
-0.0272347
0.000421166
-0.0239176
0.000337299
-0.0209004
0.000263361
-0.0181175
0.000198179
-0.0154869
0.000140581
-0.0128986
9.00193e-05
-0.010224
4.86759e-05
-0.00743195
2.0093e-05
-0.00475806
4.60449e-06
-0.00249722
-0.000731316
6.67025e-06
-0.0011862
2.92016e-05
-0.00403325
7.03852e-05
-0.00757805
0.000125063
-0.0113555
0.000187049
-0.0148513
0.000255566
-0.0181203
0.000331649
-0.0213822
0.000416635
-0.0248059
0.000511872
-0.0285038
0.000618681
-0.0325601
0.000738422
-0.0370463
0.000872445
-0.0420299
0.00102216
-0.0475781
0.00118894
-0.0537605
0.00137418
-0.0606501
0.00157914
-0.0683231
0.00180496
-0.076859
0.00205244
-0.0863395
0.00232201
-0.0968462
0.00261334
-0.108459
0.0029252
-0.12125
0.00325486
-0.135285
0.00359771
-0.150608
0.00394801
-0.167248
0.00430077
-0.185231
0.00465124
-0.204599
0.00499391
-0.225398
0.00532136
-0.247681
0.00562327
-0.271493
0.0058845
-0.296843
0.00608389
-0.323668
0.00619339
-0.35182
0.00617718
-0.381041
0.00603044
-0.337257
0.00579024
-0.298622
0.00548632
-0.264559
0.00514215
-0.234524
0.00477583
-0.208025
0.00440115
-0.184624
0.00402826
-0.163937
0.00366451
-0.145626
0.00331499
-0.129399
0.00298309
-0.115003
0.0026709
-0.102219
0.00237953
-0.0908539
0.0021094
-0.080743
0.00186039
-0.0717409
0.00163205
-0.0637206
0.00142361
-0.0565705
0.00123419
-0.0501923
0.00106272
-0.0444987
0.000908157
-0.0394119
0.000769332
-0.0348622
0.000645158
-0.0307859
0.000534496
-0.027124
0.000436287
-0.0238194
0.000349428
-0.0208135
0.000272829
-0.0180409
0.000205285
-0.0154193
0.000145585
-0.0128389
9.31893e-05
-0.0101716
5.03661e-05
-0.00738908
2.07864e-05
-0.00472845
4.76206e-06
-0.00248118
-0.000726554
6.70918e-06
-0.001193
2.96204e-05
-0.00405633
7.12988e-05
-0.00761985
0.000126415
-0.0114107
0.000188979
-0.0149139
0.000258111
-0.0181895
0.00033487
-0.021459
0.000420581
-0.0248917
0.000516601
-0.0285998
0.000624246
-0.0326678
0.000744883
-0.037167
0.000879867
-0.0421649
0.00103062
-0.0477288
0.00119854
-0.0539285
0.00138503
-0.0608366
0.0015914
-0.0685295
0.00181885
-0.0770865
0.00206827
-0.0865889
0.00234019
-0.0971181
0.00263442
-0.108753
0.00294987
-0.121566
0.00328396
-0.135619
0.00363208
-0.150956
0.00398876
-0.167605
0.00434934
-0.185592
0.00470915
-0.204958
0.00506261
-0.225752
0.00540211
-0.248021
0.005717
-0.271807
0.00599156
-0.297117
0.00620393
-0.32388
0.00632516
-0.351941
0.00631821
-0.381034
0.00617595
-0.337114
0.00593644
-0.298383
0.00563028
-0.264253
0.00528167
-0.234176
0.00490935
-0.207653
0.00452756
-0.184243
0.00414685
-0.163556
0.00377488
-0.145254
0.00341696
-0.129041
0.00307666
-0.114663
0.0027562
-0.101898
0.0024568
-0.0905545
0.00217896
-0.0804652
0.00192261
-0.0714845
0.00168733
-0.0634853
0.0014724
-0.0563556
0.00127693
-0.0499968
0.00109987
-0.0443216
0.00094016
-0.0392522
0.000796639
-0.0347187
0.000668191
-0.0306575
0.000553679
-0.0270095
0.000452007
-0.0237177
0.000362061
-0.0207236
0.000282714
-0.0179615
0.000212734
-0.0153493
0.000150858
-0.012777
9.65864e-05
-0.0101173
5.21865e-05
-0.00734472
2.15309e-05
-0.00469782
4.92598e-06
-0.00246459
-0.000721628
6.74195e-06
-0.00119988
2.96674e-05
-0.00407948
7.16864e-05
-0.00766205
0.000127426
-0.0114666
0.000190555
-0.0149771
0.000260296
-0.0182593
0.00033771
-0.0215365
0.000424131
-0.0249781
0.000520911
-0.0286967
0.000629369
-0.0327763
0.000750872
-0.0372885
0.000886783
-0.0423008
0.00103854
-0.0478806
0.00120754
-0.0540975
0.00139525
-0.0610243
0.001603
-0.0687373
0.00183207
-0.0773156
0.00208342
-0.0868403
0.00235771
-0.0973924
0.00265489
-0.10905
0.00297403
-0.121885
0.00331271
-0.135957
0.00366642
-0.15131
0.00402992
-0.167968
0.00439879
-0.185961
0.00476845
-0.205328
0.00513324
-0.226117
0.00548538
-0.248373
0.00581381
-0.272136
0.00610225
-0.297406
0.00632813
-0.324106
0.00646152
-0.352075
0.00646413
-0.381037
0.00632648
-0.336977
0.00608765
-0.298144
0.00577914
-0.263944
0.00542593
-0.233822
0.00504738
-0.207274
0.00465823
-0.183854
0.00426945
-0.163167
0.00388897
-0.144873
0.00352237
-0.128674
0.00317339
-0.114314
0.0028444
-0.101569
0.00253672
-0.0902468
0.00225091
-0.0801794
0.00198698
-0.0712206
0.00174455
-0.0632429
0.0015229
-0.056134
0.00132118
-0.0497951
0.00113835
-0.0441388
0.000973324
-0.0390872
0.000824945
-0.0345703
0.000692083
-0.0305246
0.000573578
-0.026891
0.00046832
-0.0236124
0.000375162
-0.0206304
0.000292956
-0.0178793
0.000220424
-0.0152768
0.000156275
-0.0127129
0.000100004
-0.010061
5.40092e-05
-0.00729877
2.22762e-05
-0.00466613
5.09384e-06
-0.00244743
-0.000716534
6.88338e-06
-0.00120682
3.00507e-05
-0.00410273
7.26282e-05
-0.0077047
0.000129118
-0.0115231
0.000192867
-0.0150409
0.000263218
-0.0183297
0.000341225
-0.0216145
0.000428263
-0.0250652
0.000525685
-0.0287941
0.00063483
-0.0328854
0.000757068
-0.0374108
0.000893783
-0.0424376
0.00104642
-0.0480333
0.00121642
-0.0542675
0.00140526
-0.0612131
0.00161435
-0.0689464
0.00184501
-0.0775462
0.00209832
-0.0870936
0.00237502
-0.0976691
0.00267521
-0.10935
0.00299813
-0.122208
0.00334155
-0.136301
0.00370108
-0.151669
0.00407172
-0.168339
0.00444929
-0.186338
0.0048293
-0.205708
0.00520599
-0.226493
0.00557136
-0.248738
0.00591396
-0.272478
0.00621691
-0.297709
0.00645686
-0.324346
0.0066029
-0.352221
0.00661541
-0.381049
0.0064825
-0.336844
0.00624431
-0.297906
0.00593331
-0.263633
0.00557526
-0.233464
0.00519019
-0.206889
0.00479337
-0.183457
0.00439617
-0.16277
0.00400685
-0.144484
0.00363123
-0.128299
0.00327324
-0.113956
0.00293539
-0.101231
0.00261911
-0.0899306
0.00232505
-0.0798853
0.00205327
-0.0709488
0.00180341
-0.062993
0.00157482
-0.0559054
0.00136663
-0.0495869
0.00117781
-0.04395
0.00100728
-0.0389167
0.000853871
-0.0344169
0.000716434
-0.0303872
0.000593798
-0.0267684
0.000484824
-0.0235035
0.000388353
-0.020534
0.000303194
-0.0177942
0.00022805
-0.0152017
0.00016159
-0.0126464
0.000103284
-0.0100027
5.57544e-05
-0.0072512
2.30032e-05
-0.00463335
5.27123e-06
-0.00242968
-0.000711263
7.16444e-06
-0.00121385
3.11102e-05
-0.00412645
7.44587e-05
-0.00774786
0.00013149
-0.01158
0.000195792
-0.0151051
0.000266647
-0.0184004
0.000345129
-0.0216929
0.00043264
-0.0251527
0.000530542
-0.028892
0.000640206
-0.0329951
0.000763006
-0.0375335
0.000900362
-0.0425749
0.00105374
-0.0481866
0.00122462
-0.0544384
0.00141453
-0.061403
0.00162493
-0.0691567
0.00185722
-0.0777785
0.00211255
-0.0873489
0.00239178
-0.0979483
0.00269514
-0.109654
0.003022
-0.122535
0.00337033
-0.136649
0.00373592
-0.152035
0.00411407
-0.168717
0.0045008
-0.186725
0.0048917
-0.206099
0.0052809
-0.226883
0.00566015
-0.249118
0.00601754
-0.272836
0.00633561
-0.298027
0.0065902
-0.324601
0.00674936
-0.35238
0.0067721
-0.381072
0.00664406
-0.336716
0.00640651
-0.297668
0.0060929
-0.26332
0.00572982
-0.233101
0.00533799
-0.206498
0.00493322
-0.183052
0.00452731
-0.162364
0.00412886
-0.144085
0.00374392
-0.127914
0.00337664
-0.113589
0.00302965
-0.100884
0.0027045
-0.0896054
0.00240192
-0.0795827
0.00212203
-0.070669
0.00186452
-0.0627355
0.00162875
-0.0556696
0.00141387
-0.0493721
0.00121887
-0.043755
0.00104264
-0.0387404
0.000884026
-0.0342583
0.000741852
-0.030245
0.000614935
-0.0266415
0.000502112
-0.0233906
0.000402205
-0.0204341
0.00031399
-0.017706
0.000236133
-0.0151238
0.000167266
-0.0125776
0.000106856
-0.00994236
5.76635e-05
-0.00720199
2.37884e-05
-0.00459946
5.45003e-06
-0.00241133
-0.000705813
7.42828e-06
-0.00122096
3.1917e-05
-0.00415042
7.60386e-05
-0.00779155
0.000133892
-0.0116375
0.000198882
-0.0151699
0.000270294
-0.0184717
0.000349249
-0.0217718
0.000437176
-0.0252405
0.000535468
-0.0289902
0.000645535
-0.0331051
0.000768781
-0.0376567
0.000906671
-0.0427127
0.00106069
-0.0483406
0.00123241
-0.05461
0.00142335
-0.0615939
0.00163508
-0.0693684
0.00186903
-0.0780124
0.00212647
-0.0876063
0.00240831
-0.0982301
0.00271495
-0.10996
0.00304589
-0.122866
0.0033993
-0.137003
0.00377118
-0.152407
0.00415717
-0.169103
0.00455351
-0.187121
0.00495586
-0.206501
0.0053582
-0.227285
0.00575197
-0.249511
0.00612481
-0.273209
0.00645864
-0.298361
0.00672845
-0.32487
0.00690125
-0.352553
0.00693458
-0.381105
0.00681156
-0.336593
0.00657462
-0.297431
0.00625826
-0.263003
0.00588993
-0.232733
0.00549106
-0.206099
0.00507802
-0.182639
0.00466307
-0.161949
0.00425514
-0.143677
0.00386056
-0.127519
0.00348365
-0.113212
0.00312721
-0.100528
0.00279289
-0.0892711
0.00248151
-0.0792714
0.00219325
-0.0703807
0.00192784
-0.0624701
0.00168466
-0.0554265
0.00146289
-0.0491503
0.0012615
-0.0435536
0.0010794
-0.0385583
0.00091541
-0.0340943
0.000768345
-0.030098
0.000637008
-0.0265101
0.000520209
-0.0232739
0.000416746
-0.0203306
0.000325371
-0.0176146
0.000244707
-0.0150432
0.000173332
-0.0125062
0.000110778
-0.00987981
5.97595e-05
-0.00715106
2.46458e-05
-0.00456442
5.63745e-06
-0.00239237
-0.000700176
7.44652e-06
-0.00122815
3.20515e-05
-0.00417459
7.66399e-05
-0.00783581
0.00013517
-0.0116958
0.000200688
-0.0152353
0.00027259
-0.0185435
0.000351951
-0.021851
0.00044026
-0.0253287
0.00053892
-0.0290888
0.000649374
-0.0332154
0.000773065
-0.0377804
0.000911493
-0.0428511
0.0010662
-0.0484952
0.00123878
-0.0547826
0.00143083
-0.0617859
0.00164396
-0.0695815
0.00187969
-0.0782481
0.00213936
-0.087866
0.002424
-0.0985147
0.00273413
-0.11027
0.00306939
-0.123201
0.00342813
-0.137361
0.00380664
-0.152785
0.00420091
-0.169497
0.00460742
-0.187528
0.00502184
-0.206916
0.00543796
-0.227701
0.00584691
-0.24992
0.00623587
-0.273598
0.00658609
-0.298711
0.00687175
-0.325156
0.00705869
-0.35274
0.00710299
-0.38115
0.00698515
-0.336475
0.00674881
-0.297195
0.00642956
-0.262684
0.00605575
-0.232359
0.00564956
-0.205693
0.00522795
-0.182217
0.00480363
-0.161525
0.00438588
-0.14326
0.00398131
-0.127115
0.00359445
-0.112825
0.00322824
-0.100162
0.00288446
-0.0889273
0.002564
-0.0789509
0.00226709
-0.0700838
0.00199353
-0.0621966
0.00174271
-0.0551757
0.00151382
-0.0489214
0.00130584
-0.0433457
0.00111768
-0.0383702
0.000948135
-0.0339248
0.000796021
-0.0299459
0.000660108
-0.0263742
0.000539197
-0.023153
0.000432041
-0.0202235
0.00033738
-0.01752
0.000253778
-0.0149596
0.000179768
-0.0124323
0.000114926
-0.00981501
6.19882e-05
-0.00709834
2.55437e-05
-0.00452819
5.82377e-06
-0.00237276
-0.000694352
7.26604e-06
-0.00123545
3.18534e-05
-0.0041992
7.66441e-05
-0.00788064
0.000135346
-0.0117545
0.000201168
-0.0153011
0.000273328
-0.0186157
0.000353002
-0.0219307
0.000441613
-0.0254173
0.000540642
-0.0291878
0.000651509
-0.0333263
0.000775728
-0.0379046
0.000914773
-0.0429902
0.00107027
-0.0486507
0.00124379
-0.0549561
0.00143707
-0.0619792
0.0016517
-0.0697962
0.00188933
-0.0784857
0.00215136
-0.088128
0.002439
-0.0988024
0.00275283
-0.110584
0.0030927
-0.123541
0.00345704
-0.137726
0.00384254
-0.153171
0.00424557
-0.1699
0.00466281
-0.187945
0.00508991
-0.207343
0.00552047
-0.228132
0.00594529
-0.250345
0.00635107
-0.274003
0.00671838
-0.299078
0.00702053
-0.325458
0.00722218
-0.352941
0.00727783
-0.381205
0.00716529
-0.336362
0.00692948
-0.296959
0.00660711
-0.262362
0.0062275
-0.23198
0.0058136
-0.205279
0.00538299
-0.181787
0.00494884
-0.161091
0.00452083
-0.142832
0.00410583
-0.1267
0.00370858
-0.112428
0.00333219
-0.0997853
0.00297853
-0.0885737
0.00264861
-0.078621
0.00234271
-0.0697779
0.00206066
-0.0619145
0.00180189
-0.0549169
0.0015656
-0.0486851
0.00135078
-0.0431309
0.00115631
-0.0381758
0.000981014
-0.0337495
0.000823662
-0.0297885
0.000683017
-0.0262336
0.000557845
-0.0230278
0.000446894
-0.0201126
0.000348837
-0.0174219
0.000262212
-0.0148731
0.000185551
-0.0123557
0.000118313
-0.00974787
6.37584e-05
-0.00704379
2.62908e-05
-0.00449073
6.0225e-06
-0.0023525
-0.000688329
7.10784e-06
-0.00124281
3.17735e-05
-0.00422424
7.65775e-05
-0.00792581
0.000135271
-0.0118134
0.000200968
-0.015367
0.000273163
-0.018688
0.000352853
-0.0220105
0.00044161
-0.0255062
0.000540881
-0.0292871
0.000652122
-0.0334377
0.000776854
-0.0380294
0.000916565
-0.04313
0.00107291
-0.0488071
0.00124748
-0.0551308
0.00144206
-0.0621738
0.00165828
-0.0700125
0.00189793
-0.0787254
0.00216247
-0.0883926
0.00245327
-0.0990932
0.00277105
-0.110902
0.00311582
-0.123886
0.00348612
-0.138096
0.00387902
-0.153564
0.00429131
-0.170313
0.00471989
-0.188374
0.00516032
-0.207783
0.00560603
-0.228577
0.00604744
-0.250786
0.00647079
-0.274427
0.00685594
-0.299463
0.00717528
-0.325778
0.00739222
-0.353158
0.00745965
-0.381273
0.00735255
-0.336255
0.00711721
-0.296724
0.00679153
-0.262036