/*--------------------------------*- C++ -*----------------------------------*\
| =========                 |                                                 |
| \\      /  F ield         | OpenFOAM: The Open Source CFD Toolbox           |
|  \\    /   O peration     | Version:  2412                                  |
|   \\  /    A nd           | Website:  www.openfoam.com                      |
|    \\/     M anipulation  |                                                 |
\*---------------------------------------------------------------------------*/
FoamFile
{
    version     2.0;
    format      ascii;
    arch        "LSB;label=32;scalar=64";
    class       volSymmTensorField;
    location    "2000";
    object      turbulenceProperties:R;
}
// * * * * * * * * * * * * * * * * * * * * * * * * * * * * * * * * * * * * * //

dimensions      [0 2 -2 0 0 0 0];

internalField   nonuniform List<symmTensor> 
32240
(
(4.56599e-05 1.02326e-07 -1.21098e-33 4.56599e-05 -0 4.56599e-05)
(0.000433202 9.49865e-06 1.82375e-31 0.000433198 -0 0.0004332)
(0.00108006 6.65389e-05 -0 0.00108001 -0 0.00108004)
(0.00163073 0.00019932 -0 0.00163051 -0 0.00163063)
(0.00178473 0.000351804 -6.68482e-29 0.00178413 -0 0.00178445)
(0.00165436 0.000440973 9.56494e-29 0.00165318 -0 0.0016538)
(0.00149023 0.000478968 -1.19142e-28 0.00148834 2.57264e-28 0.00148932)
(0.00136541 0.000492963 -1.24432e-24 0.00136275 7.23879e-28 0.00136413)
(0.00127694 0.000495807 -1.57779e-24 0.00127345 -2.99015e-28 0.00127527)
(0.00121196 0.000492762 3.39665e-24 0.00120762 -1.79028e-27 0.00120988)
(0.00116006 0.000485859 1.51195e-32 0.00115486 7.94303e-28 0.00115757)
(0.00111443 0.0004759 -4.38709e-28 0.00110835 -5.37336e-28 0.00111152)
(0.00107067 0.000463156 4.40385e-24 0.0010637 -2.45167e-27 0.00106734)
(0.00102592 0.000447679 -4.46952e-24 0.00101807 3.65739e-27 0.00102218)
(0.000978271 0.000429407 -5.79866e-28 0.000969527 -6.09592e-28 0.000974124)
(0.000926331 0.000408224 1.26195e-27 0.000916719 -5.8065e-28 0.000921793)
(0.000869074 0.000383989 9.56677e-24 0.000858629 -9.66564e-27 0.000864168)
(0.000805705 0.000356556 -9.39647e-24 0.000794487 1.06771e-26 0.000800467)
(0.000735624 0.000325798 1.58519e-27 0.000723715 -6.07077e-28 0.0007301)
(0.000658409 0.000291623 -1.70171e-27 0.000645923 -0 0.000652661)
(0.000573844 0.000254004 -0 0.000560929 -0 0.000567948)
(0.000481963 0.000213006 -5.19074e-32 0.000468801 -1.14566e-27 0.00047601)
(0.000383091 0.000168807 -8.80161e-24 0.000369893 1.96478e-26 0.000377185)
(0.000277807 0.000121684 1.71909e-23 0.000264814 -3.49924e-26 0.000272058)
(0.00016887 7.28373e-05 -8.54378e-24 0.000156249 1.29308e-26 0.000163357)
(5.77501e-05 2.253e-05 -8.70221e-24 4.5618e-05 2.51089e-26 5.25187e-05)
(7.17493e-05 -2.92432e-05 8.94091e-24 6.03098e-05 -1.92864e-26 6.68788e-05)
(0.000187418 -8.18888e-05 -1.08733e-31 0.00017699 -2.56964e-27 0.000183038)
(0.000304803 -0.000135124 -0 0.00029586 -0 0.000301101)
(0.00042148 -0.000188153 -1.42966e-27 0.000414754 -0 0.00041875)
(0.000533171 -0.00023912 2.75442e-29 0.000529613 -0 0.000531802)
(0.000637723 -0.000287055 1.54434e-27 0.000638289 -0 0.000638088)
(0.000731821 -0.000330428 -2.11174e-32 0.000737279 3.0142e-27 0.00073423)
(0.000802724 -0.000363311 4.5196e-24 0.000812901 -1.39736e-26 0.000807125)
(0.000849456 -0.000385117 -8.93049e-26 0.000863408 2.14527e-27 0.00085549)
(0.000878348 -0.000398687 4.98772e-24 0.000895086 -2.32184e-26 0.000885623)
(0.000894494 -0.000406326 -1.07135e-23 0.000913081 2.62194e-26 0.000902625)
(0.000901748 -0.000409789 5.23083e-27 0.000921352 9.26396e-27 0.000910385)
(0.000903 -0.000410401 -1.53824e-29 0.000922924 -0 0.000911842)
(0.000900398 -0.000409155 -2.30628e-27 0.000920081 -0 0.000909196)
(0.000895503 -0.000406775 2.14073e-27 0.000914516 -0 0.00090406)
(0.000889424 -0.000403778 -1.99316e-27 0.000907458 -0 0.000897594)
(0.00088293 -0.000400525 -1.84329e-27 0.000899778 -0 0.00089061)
(0.000876538 -0.000397252 1.70371e-27 0.000892077 -0 0.000883663)
(0.000870584 -0.000394109 1.57082e-27 0.000884759 -0 0.000877118)
(0.000865279 -0.000391176 -1.44395e-27 0.000878087 -0 0.000871212)
(0.000860759 -0.000388488 1.32728e-27 0.000872231 -0 0.000866097)
(0.000857126 -0.000386041 -2.43053e-27 0.000867319 -1.90347e-26 0.000861889)
(0.000854489 -0.000383805 -9.12851e-24 0.000863476 2.84539e-26 0.000858704)
(0.000853014 -0.000381729 8.87519e-24 0.000860876 1.71798e-26 0.000856714)
(0.000852992 -0.000379744 4.11942e-24 0.000859811 -2.98221e-26 0.00085621)
(0.000854929 -0.000377759 -3.94953e-24 0.000860786 -4.80299e-27 0.0008577)
(0.000859708 -0.000375654 3.81046e-28 0.000864679 8.16775e-27 0.000862064)
(0.000868829 -0.000373251 3.45331e-28 0.000872982 -0 0.000870799)
(0.000884797 -0.000370248 -3.10474e-28 0.000888194 -0 0.000886409)
(0.000911665 -0.000366048 -2.78158e-28 0.000914358 -0 0.000912942)
(0.00095561 -0.000359363 2.45604e-28 0.00095765 -0 0.000956575)
(0.0010245 -0.00034723 1.06307e-28 0.00102594 -0 0.00102518)
(0.0011223 -0.000322978 -8.7633e-29 0.00112322 -0 0.00112273)
(0.00122397 -0.000273474 -1.92972e-32 0.00122448 2.30602e-27 0.0012242)
(0.00121848 -0.000185902 5.66891e-26 0.0012187 -1.57451e-27 0.00121858)
(0.000971154 -8.63136e-05 -2.03712e-26 0.000971224 -3.0759e-28 0.000971184)
(0.000562059 -2.40604e-05 -5.66682e-34 0.000562073 1.19342e-28 0.000562065)
(0.000203906 -2.9448e-06 -0 0.000203907 -0 0.000203907)
(2.19426e-05 -3.34056e-08 -0 2.19426e-05 -0 2.19426e-05)
(4.67666e-05 1.06175e-07 -1.50635e-30 4.67666e-05 5.43736e-32 4.67666e-05)
(0.000443394 9.8575e-06 1.31191e-28 0.00044339 1.29816e-29 0.000443392)
(0.0010997 6.84812e-05 -7.20139e-30 0.00109965 -1.2757e-28 0.00109968)
(0.00165027 0.000203278 2.2643e-29 0.00165 -1.71695e-27 0.00165013)
(0.00179852 0.000356567 -3.1229e-25 0.00179774 2.68161e-27 0.00179812)
(0.00166465 0.000445587 5.63719e-25 0.00166309 4.76227e-27 0.00166384)
(0.00149936 0.000483332 -9.52464e-25 0.00149683 -4.16379e-27 0.00149806)
(0.00137434 0.000497155 1.21959e-24 0.0013707 9.14594e-27 0.00137248)
(0.00128589 0.000499853 4.08011e-28 0.00128108 -8.58043e-27 0.00128344)
(0.00122091 0.000496654 -4.48352e-28 0.00121489 -0 0.00121784)
(0.00116891 0.000489559 5.18759e-28 0.00116167 -1.32637e-26 0.00116522)
(0.00112304 0.000479359 -4.27307e-24 0.00111456 1.50181e-26 0.00111871)
(0.00107889 0.00046632 4.39845e-24 0.00106917 2.77249e-26 0.00107392)
(0.00103361 0.00045049 4.67361e-24 0.00102266 -3.19712e-26 0.00102801)
(0.00098526 0.000431804 -4.69421e-24 0.000973117 1.45809e-26 0.000979034)
(0.000932461 0.000410142 9.72774e-24 0.000919169 -4.69611e-26 0.000925631)
(0.000874168 0.000385358 -1.94024e-23 0.000859806 1.55602e-26 0.000866769)
(0.000809573 0.000357302 9.61586e-24 0.000794251 7.29133e-26 0.000801656)
(0.000738054 0.000325841 9.71098e-24 0.000721923 -6.59888e-26 0.000729692)
(0.000659176 0.000290877 -9.45826e-24 0.000642428 -1.41288e-26 0.000650461)
(0.000572714 0.000252384 4.8891e-27 0.000555586 2.60951e-26 0.000563763)
(0.000478706 0.000210428 -2.60437e-27 0.000461481 2.18206e-26 0.00046966)
(0.000377497 0.000165197 9.033e-24 0.000360482 -6.01394e-26 0.000368515)
(0.000269691 0.000116967 -1.76833e-23 0.000253203 1.60324e-26 0.000260936)
(0.000158779 6.72068e-05 -3.04123e-26 0.000142958 6.43759e-26 0.000150325)
(4.60878e-05 1.55337e-05 9.05022e-24 3.10976e-05 -2.27048e-26 3.80231e-05)
(9.2517e-05 -3.77346e-05 -3.97371e-27 7.85945e-05 -2.11194e-26 8.49735e-05)
(0.000211426 -9.19733e-05 -0 0.000198937 -0 0.000204614)
(0.000332369 -0.000146962 -4.29686e-27 0.000321854 -7.56668e-27 0.000326585)
(0.000452055 -0.000201532 -4.94541e-24 0.000444376 1.6219e-26 0.000447777)
(0.000566503 -0.000253972 5.75606e-26 0.00056274 1.5638e-26 0.000564347)
(0.000673287 -0.000303186 4.69211e-24 0.000674497 -1.58116e-26 0.000673849)
(0.000768768 -0.000347496 -1.06923e-29 0.000775838 -4.44686e-28 0.000772547)
(0.000839793 -0.00038075 4.68083e-24 0.000852612 -3.15434e-26 0.000846708)
(0.000885669 -0.000402442 -1.00927e-23 0.000903237 2.03876e-26 0.000895145)
(0.000912966 -0.00041551 -5.16228e-24 0.00093417 3.19895e-26 0.000924371)
(0.00092703 -0.00042237 1.93179e-25 0.00095076 4.16978e-26 0.000939746)
(0.000931897 -0.000424859 2.24894e-23 0.000957132 -6.87876e-26 0.000945367)
(0.000930596 -0.000424373 -1.97329e-25 0.000956446 -5.22703e-26 0.00094434)
(0.000925374 -0.000421954 -1.1579e-23 0.000951102 5.25445e-26 0.000939001)
(0.000917864 -0.000418367 1.13906e-23 0.000942886 -2.95565e-26 0.000931068)
(0.000909224 -0.000414161 -1.14945e-23 0.000933103 -1.33123e-26 0.000921781)
(0.000900261 -0.000409718 -1.11644e-23 0.00092269 6.41041e-26 0.000912017)
(0.000891517 -0.000405295 1.11406e-23 0.0009123 1.9927e-26 0.000902377)
(0.000883345 -0.000401055 1.06985e-23 0.000902378 -6.12162e-26 0.000893262)
(0.00087597 -0.000397089 -1.05825e-23 0.00089322 2.13203e-26 0.000884936)
(0.000869536 -0.000393438 1.00661e-23 0.000885023 -4.16771e-26 0.000877566)
(0.000864149 -0.000390103 -1.95541e-23 0.000877932 3.00772e-26 0.000871281)
(0.000859922 -0.000387058 9.45579e-24 0.000872082 2.92606e-26 0.000866202)
(0.000857022 -0.000384255 -2.87102e-27 0.000867655 -2.08171e-26 0.000862504)
(0.000855736 -0.000381623 3.38782e-27 0.000864945 -1.26031e-26 0.000860478)
(0.000856573 -0.000379074 -3.91371e-24 0.00086446 1.62912e-26 0.00086063)
(0.000860413 -0.000376484 3.70928e-24 0.000867076 1.98252e-26 0.000863837)
(0.000868753 -0.000373675 3.30038e-24 0.000874284 -2.59198e-26 0.000871594)
(0.000884095 -0.00037034 -3.02319e-24 0.000888576 -2.08284e-26 0.000886397)
(0.000910497 -0.000365882 -2.52698e-24 0.000914005 2.51648e-26 0.000912302)
(0.00095411 -0.000358992 2.14387e-24 0.000956721 1.42961e-26 0.000955457)
(0.00102274 -0.000346674 7.7598e-25 0.00102455 -1.60142e-26 0.00102368)
(0.00112019 -0.000322203 -5.51063e-25 0.00112131 -2.95354e-27 0.00112078)
(0.0012209 -0.000272384 -5.67533e-32 0.0012215 5.64412e-27 0.00122121)
(0.00121309 -0.000184545 5.65763e-26 0.00121333 -1.96773e-27 0.00121322)
(0.000963758 -8.52818e-05 -2.02697e-26 0.00096383 -3.86017e-28 0.000963797)
(0.000555773 -2.36549e-05 2.22187e-30 0.000555785 1.48686e-28 0.00055578)
(0.000200879 -2.87998e-06 -3.7908e-31 0.00020088 -0 0.000200879)
(2.15503e-05 -3.25277e-08 8.80042e-34 2.15503e-05 -0 2.15503e-05)
(4.71068e-05 1.07423e-07 1.26872e-33 4.71068e-05 -0 4.71068e-05)
(0.000447599 1.00071e-05 -1.92149e-31 0.000447596 -7.73792e-29 0.000447598)
(0.00111022 6.95259e-05 -1.20175e-26 0.00111017 3.75738e-28 0.0011102)
(0.00166308 0.000205867 4.39695e-26 0.00166285 2.41509e-27 0.00166297)
(0.00180893 0.000360047 6.90688e-29 0.00180828 -4.3697e-27 0.00180861)
(0.00167273 0.000449048 -2.84981e-28 0.00167143 -0 0.00167209)
(0.00150629 0.000486588 5.85051e-28 0.0015042 -0 0.00150526)
(0.00138063 0.000500214 -4.1271e-28 0.00137762 1.49033e-26 0.00137914)
(0.00129163 0.000502717 3.17486e-24 0.00128767 -1.53469e-26 0.00128967)
(0.00122613 0.000499319 -3.53875e-24 0.00122116 -5.4113e-27 0.00122367)
(0.00117357 0.000492017 4.0402e-24 0.00116758 3.74769e-27 0.00117061)
(0.00112712 0.000481597 -4.23534e-24 0.00112009 -2.98759e-27 0.00112365)
(0.00108235 0.000468325 4.57969e-24 0.00107428 1.54681e-27 0.00107837)
(0.00103642 0.000452245 -4.64919e-24 0.0010273 -1.87057e-26 0.00103192)
(0.000987376 0.000433289 2.8362e-27 0.000977229 1.97346e-26 0.00098238)
(0.000933839 0.000411333 -3.73158e-27 0.000922689 3.47576e-26 0.000928355)
(0.000874756 0.000386228 9.95932e-24 0.000862652 -4.19862e-26 0.000868812)
(0.000809311 0.000357818 -9.78507e-24 0.000796328 4.02703e-27 0.000802946)
(0.000736875 0.000325962 9.87517e-24 0.000723122 -4.00491e-26 0.000730145)
(0.000657004 0.000290562 -1.93714e-23 0.000642625 5.08221e-26 0.000649982)
(0.000569472 0.000251586 1.90618e-23 0.000554652 1.29174e-26 0.000562252)
(0.000474323 0.000209105 -9.30079e-24 0.000459291 -5.37416e-26 0.000467018)
(0.000371924 0.000163314 -6.06184e-27 0.000356937 3.22289e-26 0.000364664)
(0.000262988 0.000114541 8.55176e-27 0.00024831 -0 0.000255905)
(0.000151243 6.4359e-05 -2.76451e-29 0.000136941 2.58296e-26 0.000144367)
(3.78652e-05 1.21292e-05 9.27122e-24 2.40631e-05 -4.64441e-26 3.1253e-05)
(0.000100429 -4.17402e-05 -9.56228e-24 8.73333e-05 -7.67626e-27 9.41776e-05)
(0.000221231 -9.66446e-05 3.59696e-31 0.000209205 5.32111e-27 0.000215513)
(0.000344168 -0.000152421 -1.00791e-23 0.000333757 4.03347e-26 0.000339236)
(0.000465723 -0.000207728 5.16496e-24 0.000457804 1.36933e-26 0.00046199)
(0.000582075 -0.000260913 6.68159e-26 0.000577737 -7.20315e-27 0.000580063)
(0.000690579 -0.000310789 2.43406e-24 0.000690927 -7.35341e-27 0.000690805)
(0.000787338 -0.00035556 4.08366e-26 0.000793301 -1.16406e-26 0.000790237)
(0.000858894 -0.00038895 -2.34981e-24 0.000870383 3.41534e-26 0.000864422)
(0.000904665 -0.000410504 1.03267e-23 0.000920659 -4.36684e-26 0.000912349)
(0.000931381 -0.000423233 -5.45893e-24 0.000950748 -8.79586e-27 0.000940691)
(0.00094453 -0.000429619 -7.15693e-27 0.000966171 1.46221e-26 0.000954948)
(0.000948256 -0.000431549 1.38952e-27 0.000971182 -3.59957e-26 0.00095931)
(0.000945672 -0.000430457 -1.15355e-23 0.000969041 6.90318e-26 0.00095696)
(0.000939089 -0.000427412 1.17937e-23 0.000962217 4.19955e-26 0.000950281)
(0.000930186 -0.000423201 1.15982e-23 0.000952547 -6.25217e-26 0.000941026)
(0.000920156 -0.000418384 -1.90114e-25 0.000941369 -7.68965e-26 0.000930458)
(0.000909829 -0.000413352 -1.15386e-23 0.000929637 2.5078e-26 0.000919464)
(0.000899762 -0.000408368 -1.76173e-27 0.000918013 -6.67096e-27 0.000908654)
(0.000890322 -0.000403597 -1.08751e-23 0.000906945 1.87292e-26 0.000898433)
(0.000881739 -0.000399133 1.84811e-25 0.000896728 8.53405e-26 0.000889063)
(0.000874163 -0.000395015 1.03911e-23 0.000887554 -1.6741e-26 0.000880714)
(0.000867701 -0.000391246 2.49583e-27 0.000879562 -4.09723e-26 0.00087351)
(0.000862466 -0.000387799 -1.1357e-27 0.000872884 -4.92591e-26 0.000867574)
(0.000858624 -0.000384622 -8.94775e-24 0.000867695 1.10717e-25 0.000863076)
(0.000856462 -0.000381647 1.70819e-23 0.000864285 -4.29155e-27 0.000860304)
(0.000856485 -0.000378782 -4.13026e-24 0.000863158 -7.79104e-26 0.000859764)
(0.000859563 -0.000375902 -8.87829e-26 0.000865178 -3.06135e-26 0.000862324)
(0.000867191 -0.000372825 -6.75744e-24 0.000871833 7.54169e-27 0.000869474)
(0.00088187 -0.000369244 8.51138e-26 0.000885615 6.62596e-26 0.000883712)
(0.000907659 -0.000364561 2.63563e-24 0.000910579 -3.14556e-27 0.000909095)
(0.000950716 -0.000357464 -9.10573e-28 0.00095288 -4.18982e-27 0.000951779)
(0.00101885 -0.000344958 7.81468e-25 0.00102034 -1.52837e-26 0.00101958)
(0.00111573 -0.000320307 -5.54019e-25 0.00111665 -5.98628e-27 0.00111618)
(0.00121548 -0.000270369 -9.45646e-33 0.00121597 -2.92967e-28 0.00121571)
(0.0012064 -0.000182808 -5.67351e-26 0.00120661 3.88609e-27 0.0012065)
(0.000957699 -8.44055e-05 2.03335e-26 0.000957759 1.51013e-27 0.000957727)
(0.000552378 -2.34271e-05 1.2649e-27 0.000552388 -5.94726e-28 0.000552383)
(0.000199919 -2.85811e-06 -1.9538e-28 0.000199919 -1.02895e-29 0.000199919)
(2.14907e-05 -3.23731e-08 4.63487e-31 2.14907e-05 2.99714e-31 2.14907e-05)
(4.78006e-05 1.09834e-07 -0 4.78006e-05 -0 4.78006e-05)
(0.000453895 1.02261e-05 9.53317e-31 0.000453891 -1.1492e-28 0.000453893)
(0.00112272 7.07508e-05 -1.23762e-26 0.00112267 5.54668e-28 0.00112269)
(0.00167662 0.000208606 4.51735e-26 0.00167637 3.57103e-27 0.00167649)
(0.00181918 0.000363528 -1.12741e-31 0.00181845 -1.2287e-26 0.00181882)
(0.00168049 0.000452449 -6.42179e-25 0.00167904 1.52562e-26 0.00167976)
(0.00151308 0.000489794 1.9287e-24 0.00151072 9.15494e-27 0.00151189)
(0.00138705 0.000503266 -1.2696e-24 0.00138368 -3.42876e-26 0.00138536)
(0.00129788 0.000505638 3.62903e-28 0.00129345 1.62111e-26 0.00129565)
(0.00123222 0.000502114 4.7493e-28 0.00122669 -0 0.00122945)
(0.00117949 0.000494676 -1.51087e-27 0.00117285 -2.50238e-26 0.00117616)
(0.0011328 0.000484103 -4.42946e-24 0.00112504 1.63765e-28 0.0011289)
(0.00108772 0.000470652 -1.07613e-25 0.00107884 5.59151e-26 0.00108326)
(0.0010414 0.00045436 4.74274e-24 0.0010314 5.03785e-26 0.00103638)
(0.000991886 0.000435156 9.94129e-24 0.000980775 -8.40327e-26 0.000986302)
(0.000937767 0.000412909 -9.90374e-24 0.000925588 -5.23302e-26 0.000931643)
(0.000877985 0.000387463 1.5566e-27 0.000864797 5.54533e-26 0.000871351)
(0.000811712 0.000358657 -1.67968e-27 0.000797599 -0 0.000804608)
(0.000738299 0.000326342 1.80573e-27 0.00072338 -0 0.000730784)
(0.000657283 0.000290409 4.00145e-28 0.000641712 -0 0.000649434)
(0.000568412 0.000250814 -5.00645e-27 0.000552389 -0 0.000560328)
(0.000471705 0.000207618 2.67058e-27 0.000455472 -4.28672e-26 0.000463506)
(0.000367504 0.000161004 -9.43161e-24 0.000351334 5.71171e-26 0.000359328)
(0.000256692 0.000111369 9.24542e-24 0.000240853 2.90177e-26 0.00024868)
(0.000142976 6.02349e-05 -5.84304e-27 0.000127502 -7.51128e-27 0.00013514)
(3.00212e-05 6.79432e-06 9.58341e-24 1.5047e-05 -5.79481e-26 2.24253e-05)
(0.000116 -4.84121e-05 -9.89488e-24 0.000101748 -1.97382e-26 0.000108762)
(0.000239928 -0.00010473 5.67504e-31 0.000226799 7.99169e-27 0.000233254)
(0.000366129 -0.000162009 -1.04191e-23 0.000354714 2.98292e-26 0.000360313)
(0.00049068 -0.000218718 9.05968e-26 0.000481929 7.33113e-26 0.000486208)
(0.000609779 -0.000273213 1.03847e-23 0.000604852 -3.12567e-26 0.00060725)
(0.000720575 -0.000324212 -1.32554e-27 0.000720634 -3.47584e-26 0.000720583)
(0.00081894 -0.000369816 -2.36871e-27 0.000824973 -0 0.000821989)
(0.000891028 -0.000403558 8.86328e-27 0.000902978 3.61039e-26 0.000897085)
(0.000936414 -0.000425041 1.05093e-23 0.000953249 -3.82448e-26 0.00094495)
(0.000962038 -0.000437365 -1.90589e-25 0.000982591 -7.85503e-26 0.000972458)
(0.000973599 -0.000443104 -1.16194e-23 0.000996719 8.67817e-26 0.000985315)
(0.000975397 -0.000444217 1.16789e-23 0.00100003 5.80609e-27 0.000987876)
(0.000970677 -0.000442196 -2.00354e-25 0.000995922 -1.44406e-25 0.000983456)
(0.000961849 -0.000438158 -2.40201e-23 0.000986956 1.22742e-25 0.000974551)
(0.000950669 -0.000432926 1.20673e-23 0.000975055 6.23066e-26 0.000962998)
(0.000938391 -0.00042709 1.41037e-26 0.000961622 -4.94101e-26 0.000950129)
(0.000925886 -0.000421064 -2.74168e-27 0.000947665 -0 0.000936884)
(0.000913745 -0.000415125 3.27254e-30 0.000933886 -6.03185e-26 0.00092391)
(0.000902354 -0.000409451 -1.109e-23 0.000920765 2.19414e-26 0.000911641)
(0.000891958 -0.000404143 1.87763e-25 0.000908614 1.14101e-25 0.000900355)
(0.00088271 -0.000399247 1.05816e-23 0.00089764 -1.97446e-26 0.000890234)
(0.00087472 -0.000394764 -4.33477e-27 0.000887988 -5.44743e-26 0.000881403)
(0.000868097 -0.000390667 2.70967e-30 0.000879788 -6.53427e-26 0.000873984)
(0.000863001 -0.000386906 -9.08183e-24 0.000873215 7.94494e-26 0.000868143)
(0.00085971 -0.000383405 8.74952e-24 0.00086855 7.54288e-26 0.000864159)
(0.000858718 -0.00038007 4.01128e-24 0.000866286 -1.28039e-25 0.000862526)
(0.000860897 -0.000376776 -7.50678e-24 0.00086729 1.71879e-26 0.000864113)
(0.000867735 -0.000373337 3.46321e-24 0.000873043 4.90569e-26 0.000870405)
(0.00088173 -0.000369443 1.10048e-27 0.000886033 8.86005e-27 0.000883895)
(0.000906937 -0.000364491 2.57716e-24 0.000910308 -3.97582e-26 0.000908634)
(0.000949507 -0.000357162 -2.18285e-24 0.000952019 -1.92522e-27 0.000950773)
(0.00101722 -0.000344444 7.87585e-25 0.00101895 1.55167e-27 0.00101809)
(0.00111363 -0.000319567 -5.57326e-25 0.00111471 -7.92153e-27 0.00111418)
(0.0012125 -0.00026936 -2.2948e-28 0.00121308 7.18819e-27 0.00121279)
(0.00120173 -0.000181652 -9.86245e-29 0.00120197 -0 0.00120185)
(0.000952031 -8.3616e-05 7.14682e-29 0.000952101 -9.76829e-28 0.000952067)
(0.000547966 -2.31426e-05 -1.27497e-27 0.000547978 3.93766e-28 0.000547972)
(0.000197955 -2.81611e-06 1.95762e-28 0.000197956 1.34248e-29 0.000197955)
(2.1248e-05 -3.18298e-08 -4.64622e-31 2.1248e-05 -3.91172e-31 2.1248e-05)
(4.83974e-05 1.11997e-07 -4.07067e-33 4.83974e-05 9.15281e-31 4.83974e-05)
(0.000460134 1.04538e-05 5.98295e-28 0.00046013 -6.53864e-29 0.000460132)
(0.00113528 7.20143e-05 -4.2667e-27 0.00113523 -6.8887e-28 0.00113525)
(0.00169001 0.000211333 -3.49034e-29 0.00168976 2.12415e-27 0.00168988)
(0.00182918 0.000366917 -0 0.00182846 -0 0.00182882)
(0.00168806 0.000455735 1.91349e-28 0.00168663 -0 0.00168734)
(0.0015196 0.000492868 2.62265e-28 0.00151729 -2.47288e-26 0.00151845)
(0.00139312 0.000506166 -2.70772e-24 0.00138982 2.52346e-26 0.00139147)
(0.00130363 0.000508379 3.18177e-24 0.00129928 4.32995e-26 0.00130146)
(0.00123765 0.000504692 -1.64786e-30 0.00123223 -7.07392e-26 0.00123494)
(0.00118455 0.000497073 -4.19533e-24 0.00117804 3.04911e-26 0.0011813)
(0.00113744 0.000486296 4.39762e-24 0.00112981 1.03526e-25 0.00113363)
(0.00109187 0.000472614 9.50812e-24 0.00108312 -3.77447e-26 0.00108751)
(0.00104499 0.000456061 2.1337e-25 0.00103512 -7.52283e-26 0.00104006)
(0.00099483 0.000436563 2.06515e-25 0.000983861 -6.56762e-26 0.000989356)
(0.000939995 0.000413989 -1.00751e-23 0.000927954 6.66184e-26 0.000933988)
(0.000879418 0.00038818 1.03335e-23 0.000866358 1.37427e-27 0.000872903)
(0.000812263 0.000358972 -1.01646e-23 0.000798264 -1.0909e-27 0.000805281)
(0.000737877 0.000326213 1.02708e-23 0.000723051 -2.37315e-27 0.000730484)
(0.000655787 0.000289788 -1.00151e-23 0.000640281 -5.62193e-26 0.000648057)
(0.00056573 0.00024965 3.50866e-30 0.000549734 6.30442e-26 0.000557758)
(0.000467715 0.000205853 -0 0.000451463 -0 0.000459616)
(0.000362066 0.000158571 4.13819e-27 0.000345822 5.15987e-26 0.000353975)
(0.000249934 0.000108317 9.49875e-24 0.00023395 -6.5966e-26 0.000241981)
(0.000134736 5.64588e-05 -9.57827e-24 0.000119033 -3.88753e-26 0.000126928)
(2.53462e-05 2.21353e-06 -5.07417e-27 1.00525e-05 5.56055e-26 1.77398e-05)
(0.000128229 -5.38668e-05 5.47961e-27 0.000113562 -0 0.000120937)
(0.00025437 -0.000111135 2.21677e-30 0.000240739 4.35635e-26 0.000247597)
(0.000383018 -0.000169498 1.07256e-23 0.000371035 -7.29414e-26 0.000377063)
(0.000509787 -0.000227199 -1.08726e-23 0.000500453 -1.97524e-26 0.000505146)
(0.000631026 -0.000282664 -1.27933e-26 0.000625558 4.75882e-26 0.000628313)
(0.000743665 -0.000334511 2.88741e-27 0.000743294 -9.57421e-27 0.000743488)
(0.000843317 -0.000380725 -2.30969e-24 0.000849102 3.90615e-26 0.0008462)
(0.000915774 -0.000414671 7.63313e-24 0.000927686 -8.95727e-26 0.000921699)
(0.000960742 -0.000435996 -1.62819e-23 0.000977714 7.95879e-26 0.000969182)
(0.000985364 -0.000447893 1.15052e-23 0.00100619 8.52533e-26 0.000995719)
(0.000995528 -0.00045302 1.16741e-23 0.001019 -1.52121e-25 0.0010072)
(0.000995678 -0.0004534 -1.21508e-23 0.00102072 -1.27807e-26 0.00100813)
(0.000989168 -0.000450577 -1.05254e-26 0.00101483 1.2409e-25 0.00100194)
(0.00097849 -0.000445706 1.21755e-23 0.001004 -1.74179e-25 0.000991186)
(0.00096546 -0.000439638 -2.44514e-23 0.00099022 1.51195e-25 0.000977785)
(0.000951371 -0.000432982 2.42147e-23 0.000974938 -1.10378e-26 0.000963105)
(0.000937124 -0.000426166 -1.20211e-23 0.000959193 -9.97988e-26 0.000948114)
(0.000923328 -0.000419476 -7.43826e-27 0.000943712 6.68056e-26 0.000933481)
(0.000910379 -0.000413096 1.81036e-26 0.000928986 -0 0.000919649)
(0.000898529 -0.000407129 -6.29597e-27 0.000915339 8.11901e-26 0.000906905)
(0.000887934 -0.000401623 1.05434e-23 0.000902979 -1.02453e-25 0.000895432)
(0.000878704 -0.00039658 -1.03151e-23 0.000892052 -5.06561e-26 0.000885357)
(0.000870947 -0.000391973 3.79468e-31 0.000882688 -1.36518e-26 0.000876801)
(0.00086482 -0.000387749 -9.1946e-24 0.000875058 1.00774e-25 0.000869925)
(0.000860597 -0.000383833 8.85439e-24 0.00086944 5.63423e-26 0.000865007)
(0.000858771 -0.000380129 -1.1575e-27 0.000866324 -1.14838e-25 0.000862537)
(0.000860204 -0.000376508 -3.7459e-24 0.000866568 5.91161e-27 0.000863378)
(0.000866381 -0.000372783 8.66798e-26 0.000871649 7.93195e-26 0.000869009)
(0.000879799 -0.000368644 3.11538e-24 0.000884056 4.02452e-26 0.000881923)
(0.000904511 -0.000363482 2.59854e-24 0.000907834 -8.39903e-26 0.000906169)
(0.000946658 -0.000355968 -2.19752e-24 0.000949124 -2.64503e-26 0.00094789)
(0.00101399 -0.000343073 -1.20385e-27 0.00101569 5.21239e-26 0.00101484)
(0.00110995 -0.000318016 5.23909e-25 0.001111 -2.49356e-26 0.00111047)
(0.0012079 -0.000267652 -3.14677e-25 0.00120846 -2.74125e-26 0.00120818)
(0.00119561 -0.000180077 -1.1392e-25 0.00119584 2.5273e-26 0.00119572)
(0.00094576 -8.27265e-05 5.6129e-26 0.000945829 -1.2414e-28 0.000945794)
(0.000543766 -2.28685e-05 -3.86483e-27 0.000543778 -1.26834e-27 0.000543772)
(0.000196356 -2.78145e-06 3.70001e-29 0.000196357 5.62198e-29 0.000196356)
(2.10782e-05 -3.14419e-08 -4.62618e-31 2.10782e-05 -6.49557e-32 2.10782e-05)
(4.90379e-05 1.14295e-07 -1.69885e-30 4.90379e-05 2.43701e-30 4.90379e-05)
(0.000466436 1.06809e-05 1.37589e-27 0.000466432 -1.21365e-28 0.000466434)
(0.00114792 7.32787e-05 -8.75444e-27 0.00114787 -2.1066e-27 0.0011479)
(0.00170404 0.000214216 -1.30807e-28 0.00170377 5.26289e-27 0.0017039)
(0.00184003 0.000370652 2.50857e-28 0.00183927 -0 0.00183965)
(0.00169646 0.000459451 3.56309e-28 0.00169497 2.52722e-26 0.00169571)
(0.00152701 0.000496405 2.07119e-24 0.0015246 -2.71476e-26 0.0015258)
(0.00140014 0.00050955 -2.64233e-24 0.00139671 -5.50689e-26 0.00139842)
(0.00131042 0.00051162 -8.02149e-28 0.0013059 5.03137e-26 0.00130816)
(0.00124423 0.00050779 -0 0.0012386 -0 0.00124141)
(0.00119088 0.000500016 -4.53832e-28 0.00118413 -0 0.0011875)
(0.00114345 0.000489066 5.01435e-28 0.00113556 -0 0.0011395)
(0.00109751 0.000475186 -2.43748e-27 0.00108847 -0 0.00109299)
(0.00105018 0.000458408 1.23219e-30 0.00103999 7.92835e-26 0.00104508)
(0.000999501 0.000438652 1.03187e-23 0.000988167 -1.6986e-27 0.00099383)
(0.00094405 0.000415782 2.0096e-25 0.000931614 -2.45347e-25 0.000937827)
(0.000882757 0.000389634 -2.09216e-23 0.00086927 8.51079e-26 0.000876008)
(0.000814772 0.000360037 1.03839e-23 0.000800317 1.63093e-25 0.000807538)
(0.000739429 0.000326832 -4.06625e-27 0.000724115 -8.18834e-26 0.000731764)
(0.000656235 0.000289897 4.36496e-27 0.00064021 -0 0.000648213)
(0.000564905 0.000249171 -0 0.000548356 -0 0.00055662)
(0.000465416 0.000204693 -0 0.000448572 -0 0.00045698)
(0.000358039 0.000156612 -0 0.000341157 -0 0.000349583)
(0.000244246 0.000105574 -5.66686e-27 0.000227555 -0 0.000235891)
(0.000126905 5.26666e-05 6.08849e-27 0.000110426 -0 0.000118656)
(2.70507e-05 -2.76726e-06 -0 1.0914e-05 -0 1.8967e-05)
(0.000142664 -6.01448e-05 -0 0.000127098 -0 0.000134865)
(0.000271886 -0.000118784 -0 0.000257322 -0 0.000264589)
(0.000403798 -0.000178622 -8.34145e-27 0.000390887 -0 0.000397324)
(0.000533627 -0.000237723 8.90179e-27 0.000523441 -2.59108e-26 0.000528513)
(0.000657735 -0.000294518 -5.42998e-24 0.000651565 2.92077e-26 0.000654639)
(0.000772811 -0.00034752 2.66352e-24 0.00077197 3.09197e-26 0.000772388)
(0.000874204 -0.000394593 2.43208e-24 0.000879827 3.85899e-27 0.000877023)
(0.000947289 -0.0004289 5.19392e-24 0.000959376 -6.18724e-26 0.000953346)
(0.00099193 -0.000450149 -5.63567e-24 0.00100939 -4.42124e-27 0.00100068)
(0.00101551 -0.000461634 -2.43907e-26 0.00103707 -3.8229e-26 0.00102631)
(0.00102413 -0.00046611 -1.19955e-23 0.00104855 1.16806e-25 0.00103636)
(0.00102239 -0.000465676 1.24789e-23 0.00104854 -5.59051e-26 0.00103549)
(0.00101379 -0.000461933 -1.23987e-23 0.00104066 5.17559e-26 0.00102725)
(0.00100092 -0.000456083 1.26788e-23 0.00102768 3.08452e-26 0.00101432)
(0.000985653 -0.000449011 -6.48262e-27 0.00101168 -7.54693e-26 0.000998686)
(0.000969351 -0.000441355 -1.46462e-26 0.000994157 -0 0.000981774)
(0.000952954 -0.000433561 6.75769e-27 0.000976213 -9.26185e-26 0.000964601)
(0.000937099 -0.000425932 -1.1801e-23 0.000958606 2.18756e-25 0.000947868)
(0.000922204 -0.000418661 2.3192e-23 0.000941855 -7.02541e-26 0.000932042)
(0.000908532 -0.000411859 -1.13404e-23 0.0009263 -1.40386e-25 0.000917427)
(0.000896248 -0.000405577 2.03628e-27 0.000912163 8.44865e-26 0.000904214)
(0.000885463 -0.000399821 4.44315e-27 0.000899593 -0 0.000892536)
(0.000876285 -0.000394563 4.77276e-30 0.000888722 -1.02453e-25 0.00088251)
(0.000868866 -0.000389749 -9.32472e-24 0.000879718 1.20998e-25 0.000874298)
(0.000863476 -0.000385303 8.97232e-24 0.000872855 6.90865e-26 0.00086817)
(0.000860598 -0.000381125 3.42098e-30 0.000868616 -8.60382e-26 0.000864611)
(0.000861091 -0.000377084 1.37801e-27 0.000867851 -0 0.000864474)
(0.000866431 -0.00037299 8.83729e-31 0.000872033 -0 0.000869235)
(0.000879107 -0.000368525 -1.11545e-27 0.000883637 -0 0.000881374)
(0.000903171 -0.000363077 -9.96991e-28 0.00090671 5.62717e-26 0.000904943)
(0.000944775 -0.000355317 2.13669e-24 0.000947402 -6.26745e-26 0.000946092)
(0.00101164 -0.000342202 -1.68102e-24 0.00101345 2.5753e-29 0.00101255)
(0.00110707 -0.000316915 5.26242e-25 0.0011082 2.68796e-26 0.00110764)
(0.00120406 -0.000266304 -3.11047e-26 0.00120466 -3.47029e-26 0.00120436)
(0.00119008 -0.000178695 -1.3541e-25 0.00119033 1.08292e-27 0.0011902)
(0.000939664 -8.18754e-05 -3.3961e-30 0.000939736 5.11991e-27 0.0009397)
(0.000539417 -2.2588e-05 1.26985e-27 0.00053943 -2.25529e-28 0.000539424)
(0.000194586 -2.74356e-06 -1.19452e-28 0.000194587 -5.50674e-29 0.000194587)
(2.0877e-05 -3.09894e-08 -4.59092e-31 2.0877e-05 4.4455e-31 2.0877e-05)
(4.96232e-05 1.16371e-07 4.22576e-33 4.96231e-05 -2.72397e-30 4.96232e-05)
(0.000471902 1.08724e-05 -1.27086e-27 0.000471897 1.94095e-28 0.000471899)
(0.00115989 7.44708e-05 9.05885e-27 0.00115983 -3.62827e-28 0.00115986)
(0.00171736 0.00021694 -1.24232e-25 0.00171708 -1.05329e-27 0.00171722)
(0.00185013 0.000374081 3.07995e-25 0.00184936 3.63053e-26 0.00184975)
(0.00170407 0.000462754 6.86945e-25 0.00170254 -4.30165e-26 0.0017033)
(0.00153357 0.000499485 -9.98631e-25 0.00153112 -3.31593e-26 0.00153234)
(0.00140624 0.000512449 2.07876e-27 0.00140274 3.05657e-26 0.00140449)
(0.00131622 0.00051436 5.66675e-31 0.00131162 -0 0.00131392)
(0.00124974 0.000510372 -1.52673e-27 0.00124402 -4.46542e-26 0.00124688)
(0.00119607 0.000502426 -4.35728e-24 0.0011892 4.32959e-26 0.00119264)
(0.00114826 0.00049128 4.56564e-24 0.00114023 5.78813e-26 0.00114425)
(0.00110187 0.000477176 -1.90123e-30 0.00109266 -5.45411e-26 0.00109727)