/*--------------------------------*- C++ -*----------------------------------*\
| =========                 |                                                 |
| \\      /  F ield         | OpenFOAM: The Open Source CFD Toolbox           |
|  \\    /   O peration     | Version:  2412                                  |
|   \\  /    A nd           | Website:  www.openfoam.com                      |
|    \\/     M anipulation  |                                                 |
\*---------------------------------------------------------------------------*/
FoamFile
{
    version     2.0;
    format      ascii;
    arch        "LSB;label=32;scalar=64";
    class       volVectorField;
    location    "2000";
    object      U;
}
// * * * * * * * * * * * * * * * * * * * * * * * * * * * * * * * * * * * * * //

dimensions      [0 1 -1 0 0 0 0];

internalField   nonuniform List<vector> 
32240
(
(0.0292118 -8.07326e-07 0)
(0.0900177 -5.64496e-06 0)
(0.15341 -1.53447e-05 0)
(0.20965 -2.91634e-05 0)
(0.250187 -4.46799e-05 0)
(0.277656 -6.08436e-05 0)
(0.297365 -7.81325e-05 0)
(0.312738 -9.708e-05 1.99545e-26)
(0.325578 -0.000118076 1.64215e-26)
(0.336845 -0.000141432 -3.07529e-26)
(0.34707 -0.000167495 0)
(0.356558 -0.000196589 0)
(0.365492 -0.000229076 -2.1923e-26)
(0.373979 -0.000265307 2.14512e-26)
(0.382082 -0.000305644 0)
(0.389829 -0.000350443 0)
(0.397221 -0.000400047 -2.26842e-26)
(0.40424 -0.000454729 2.26374e-26)
(0.410846 -0.000514684 0)
(0.416979 -0.000579971 0)
(0.422559 -0.000650467 0)
(0.427489 -0.000725722 0)
(0.431651 -0.000804949 -5.16097e-26)
(0.434914 -0.000886861 1.21544e-25)
(0.437136 -0.000969283 -6.87182e-26)
(0.438212 -0.0010495 -1.09939e-25)
(0.438117 -0.00112492 1.04274e-25)
(0.436892 -0.00119362 0)
(0.4346 -0.0012533 0)
(0.431288 -0.00130125 0)
(0.426944 -0.00133357 0)
(0.421491 -0.00134493 0)
(0.414803 -0.00132793 0)
(0.407451 -0.00128001 1.28365e-25)
(0.400261 -0.00121311 1.07382e-26)
(0.393286 -0.00113478 1.61276e-25)
(0.386546 -0.00105048 -3.05173e-25)
(0.380033 -0.000964209 0)
(0.373729 -0.000878803 0)
(0.367608 -0.00079621 0)
(0.36164 -0.000717693 0)
(0.355792 -0.00064403 0)
(0.350035 -0.000575612 0)
(0.344337 -0.000512584 0)
(0.338668 -0.000454892 0)
(0.333 -0.000402367 0)
(0.327305 -0.000354747 0)
(0.321555 -0.000311736 0)
(0.315721 -0.000273009 -5.44384e-25)
(0.309769 -0.000238225 5.63285e-25)
(0.303664 -0.000207051 2.95844e-25)
(0.297357 -0.000179158 -3.09191e-25)
(0.290786 -0.00015424 0)
(0.283864 -0.000131994 0)
(0.276458 -0.000112149 0)
(0.268363 -9.44333e-05 0)
(0.259231 -7.86223e-05 0)
(0.248462 -6.44611e-05 0)
(0.234966 -5.17156e-05 0)
(0.216777 -4.00244e-05 0)
(0.19075 -2.89916e-05 3.58276e-25)
(0.154183 -1.86616e-05 -4.72642e-25)
(0.109596 -1.00172e-05 0)
(0.063711 -3.90335e-06 0)
(0.0206408 -6.55277e-07 0)
(0.0295552 1.04015e-07 -1.36735e-25)
(0.0909694 -2.72518e-06 2.14364e-25)
(0.154897 -1.10242e-05 0)
(0.211412 -2.49745e-05 0)
(0.251989 -4.23255e-05 -8.7018e-25)
(0.27945 -6.15399e-05 6.22787e-25)
(0.299158 -8.28598e-05 -4.79679e-25)
(0.314537 -0.00010682 3.95919e-25)
(0.32739 -0.000133795 0)
(0.338673 -0.000164093 0)
(0.348914 -0.000198042 0)
(0.358415 -0.000235976 -5.63999e-25)
(0.367359 -0.00027824 5.4599e-25)
(0.375852 -0.000325151 5.34313e-25)
(0.383954 -0.000377005 -5.26602e-25)
(0.391692 -0.000434044 1.0421e-24)
(0.399066 -0.000496448 -2.07138e-24)
(0.406057 -0.000564259 1.03182e-24)
(0.41262 -0.000637369 1.02334e-24)
(0.418697 -0.000715447 -1.02162e-24)
(0.424204 -0.000797877 0)
(0.429041 -0.000883654 0)
(0.433089 -0.000971321 9.73569e-25)
(0.436217 -0.00105911 -1.89913e-24)
(0.438278 -0.00114427 1.15483e-26)
(0.43918 -0.00122404 8.59945e-25)
(0.438912 -0.00129638 0)
(0.43752 -0.00135995 0)
(0.435066 -0.00141322 0)
(0.431594 -0.00145406 -3.18963e-25)
(0.427084 -0.00147947 5.60205e-27)
(0.421457 -0.00148499 2.93495e-25)
(0.414583 -0.00146488 0)
(0.407053 -0.00141671 2.75042e-25)
(0.399706 -0.00135041 -5.50717e-25)
(0.392595 -0.00127195 -2.6942e-25)
(0.385736 -0.00118606 5.47369e-27)
(0.379122 -0.00109648 1.09949e-24)
(0.372731 -0.00100607 -3.45778e-27)
(0.366537 -0.000916955 -5.59041e-25)
(0.360508 -0.000830682 5.6364e-25)
(0.354611 -0.000748336 -5.7373e-25)
(0.348814 -0.000670617 -5.83465e-25)
(0.343084 -0.000597947 5.96159e-25)
(0.337391 -0.000530517 6.10567e-25)
(0.331706 -0.000468365 -6.26264e-25)
(0.326 -0.000411403 6.45133e-25)
(0.320244 -0.00035946 -1.3301e-24)
(0.314408 -0.000312308 6.87378e-25)
(0.30846 -0.000269682 0)
(0.302361 -0.000231301 0)
(0.296063 -0.000196868 -3.90272e-25)
(0.289504 -0.000166095 4.11579e-25)
(0.282596 -0.000138695 4.40378e-25)
(0.275207 -0.000114401 -4.77397e-25)
(0.26713 -9.29571e-05 -5.31656e-25)
(0.258017 -7.41413e-05 6.11034e-25)
(0.247267 -5.77314e-05 3.69344e-25)
(0.233788 -4.35038e-05 -4.73131e-25)
(0.215611 -3.11309e-05 0)
(0.1896 -2.03009e-05 4.51664e-25)
(0.153096 -1.11966e-05 -5.95634e-25)
(0.108699 -4.64272e-06 0)
(0.0631194 -1.09133e-06 0)
(0.0204283 1.69667e-07 0)
(0.0296165 -3.29795e-07 0)
(0.091229 -3.65809e-06 0)
(0.155416 -1.18783e-05 -1.02274e-24)
(0.212102 -2.476e-05 7.94848e-25)
(0.252726 -4.0117e-05 0)
(0.280206 -5.67262e-05 0)
(0.299932 -7.49341e-05 0)
(0.315335 -9.52814e-05 0)
(0.328212 -0.000118148 8.90737e-25)
(0.339518 -0.000143848 -8.10027e-25)
(0.349779 -0.000172706 7.59673e-25)
(0.359299 -0.000205051 -7.25021e-25)
(0.368257 -0.000241225 7.03791e-25)
(0.376761 -0.00028157 -6.88359e-25)
(0.38487 -0.00032643 0)
(0.392609 -0.000376116 0)
(0.39998 -0.000430901 1.34557e-24)
(0.406959 -0.000490986 -1.34136e-24)
(0.413506 -0.000556462 1.34394e-24)
(0.419556 -0.00062724 -2.68516e-24)
(0.425027 -0.000702982 2.682e-24)
(0.429818 -0.000783009 -1.33437e-24)
(0.433808 -0.000866189 0)
(0.436865 -0.000951025 0)
(0.438846 -0.00103511 0)
(0.439661 -0.00111588 1.20814e-24)
(0.439309 -0.00119144 -1.14246e-24)
(0.437835 -0.0012601 0)
(0.435302 -0.00131981 -1.03365e-24)
(0.431751 -0.00136784 4.89136e-25)
(0.427157 -0.00140054 -3.05487e-27)
(0.42144 -0.0014125 2.31931e-25)
(0.414468 -0.00139668 -1.85868e-27)
(0.406844 -0.00134961 -2.38615e-25)
(0.399415 -0.00128242 9.58811e-25)
(0.392234 -0.0012025 -4.86079e-25)
(0.385315 -0.00111543 0)
(0.37865 -0.00102541 0)
(0.372219 -0.00093547 -1.03944e-24)
(0.365991 -0.000847814 1.05487e-24)
(0.359936 -0.000763912 1.0864e-24)
(0.354019 -0.000684722 6.31241e-27)
(0.348207 -0.000610782 -1.13541e-24)
(0.342467 -0.000542349 0)
(0.336768 -0.000479462 -1.20548e-24)
(0.33108 -0.000422016 -4.41843e-27)
(0.325375 -0.000369803 1.27691e-24)
(0.319622 -0.000322557 0)
(0.313793 -0.000279975 0)
(0.307854 -0.000241735 -1.42449e-24)
(0.301766 -0.000207511 2.96843e-24)
(0.295483 -0.00017698 -7.76376e-25)
(0.288941 -0.000149833 1.09506e-27)
(0.282053 -0.00012577 -1.75683e-24)
(0.274686 -0.000104517 -9.69622e-28)
(0.266633 -8.58112e-05 1.06012e-24)
(0.257548 -6.9418e-05 0)
(0.246825 -5.50958e-05 7.37347e-25)
(0.233372 -4.25837e-05 -9.45328e-25)
(0.215216 -3.15121e-05 0)
(0.189225 -2.15141e-05 -9.0148e-25)
(0.152781 -1.27473e-05 1.18723e-24)
(0.108504 -6.0637e-06 6.8108e-25)
(0.0630454 -2.00533e-06 -1.0319e-24)
(0.0204224 -2.28979e-07 2.1653e-25)
(0.0298308 -1.82949e-07 0)
(0.0918467 -3.68071e-06 0)
(0.156394 -1.24348e-05 -1.49548e-24)
(0.21327 -2.63054e-05 1.15974e-24)
(0.253932 -4.29847e-05 0)
(0.281416 -6.11614e-05 -1.16611e-24)
(0.301149 -8.11787e-05 1.79455e-24)
(0.316561 -0.000103555 -7.41605e-25)
(0.329449 -0.000128642 0)
(0.340768 -0.000156737 0)
(0.35104 -0.000188155 0)
(0.360569 -0.000223221 -1.05623e-24)
(0.369534 -0.000262276 -7.60861e-28)
(0.378041 -0.000305649 1.00034e-24)
(0.386149 -0.000353661 1.97362e-24)
(0.393882 -0.0004066 -1.95457e-24)
(0.401241 -0.000464705 0)
(0.408202 -0.000528125 0)
(0.414721 -0.000596881 0)
(0.420734 -0.000670814 0)
(0.426156 -0.000749504 0)
(0.430885 -0.000832164 0)
(0.434799 -0.000917553 -1.88609e-24)
(0.437763 -0.00100404 1.84431e-24)
(0.439636 -0.00108919 0)
(0.440339 -0.00117051 1.69296e-24)
(0.439874 -0.00124632 -1.5998e-24)
(0.43829 -0.00131506 0)
(0.435649 -0.00137474 -1.43188e-24)
(0.431987 -0.0014227 -3.00774e-27)
(0.427278 -0.00145546 1.31723e-24)
(0.421437 -0.0014678 0)
(0.414333 -0.00145308 0)
(0.406579 -0.00140778 0)
(0.399036 -0.00134234 1.30411e-24)
(0.391756 -0.0012637 4.96244e-27)
(0.384751 -0.00117723 -1.33653e-24)
(0.378013 -0.00108704 1.36275e-24)
(0.371518 -0.000996184 4.76488e-27)
(0.365239 -0.000906914 -2.81927e-24)
(0.35914 -0.000820795 1.43614e-24)
(0.353187 -0.000738891 0)
(0.347346 -0.00066186 0)
(0.341583 -0.000590065 0)
(0.335867 -0.000523642 -1.58893e-24)
(0.330167 -0.000462575 -3.31145e-27)
(0.324453 -0.000406729 1.68364e-24)
(0.318697 -0.000355898 0)
(0.312867 -0.000309819 0)
(0.306929 -0.000268209 -1.87578e-24)
(0.300847 -0.000230766 1.95436e-24)
(0.294571 -0.000197183 1.02604e-24)
(0.288038 -0.00016716 -2.16782e-24)
(0.281161 -0.000140407 1.15792e-24)
(0.273808 -0.000116651 0)
(0.265771 -9.56341e-05 1.40025e-24)
(0.256703 -7.71287e-05 -1.6115e-24)
(0.245999 -6.09068e-05 9.74119e-25)
(0.232565 -4.67272e-05 -1.24984e-24)
(0.214427 -3.42477e-05 0)
(0.188457 -2.3108e-05 0)
(0.152068 -1.34838e-05 0)
(0.10793 -6.25053e-06 -9.00347e-25)
(0.0626792 -1.93473e-06 1.3638e-24)
(0.0202932 -8.16647e-08 -2.87691e-25)
(0.029984 -2.46576e-07 0)
(0.0923187 -3.71561e-06 1.02523e-24)
(0.157188 -1.2445e-05 -9.43733e-25)
(0.214246 -2.6207e-05 0)
(0.254948 -4.26666e-05 0)
(0.282442 -6.0523e-05 0)
(0.302186 -8.01321e-05 0)
(0.317613 -0.000102037 -1.86863e-24)
(0.330519 -0.000126611 1.63322e-24)
(0.341854 -0.000154173 0)
(0.352142 -0.000185049 -1.39293e-24)
(0.361685 -0.000219576 1.3293e-24)
(0.370661 -0.000258102 2.57664e-24)
(0.379176 -0.00030097 1.82113e-27)
(0.387286 -0.000348517 1.83949e-27)
(0.395018 -0.000401049 -2.4602e-24)
(0.402369 -0.000458823 2.44847e-24)
(0.409316 -0.000522019 -2.43848e-24)
(0.415812 -0.000590699 2.43475e-24)
(0.421794 -0.000664743 -2.42651e-24)
(0.427174 -0.000743775 0)
(0.431848 -0.000827063 0)
(0.435693 -0.000913423 0)
(0.438572 -0.00100119 2.31893e-24)
(0.440349 -0.00108796 -2.23051e-24)
(0.440952 -0.00117128 0)
(0.440388 -0.00124958 0)
(0.438706 -0.00132122 0)
(0.435968 -0.00138411 1.80452e-24)
(0.432208 -0.00143543 -1.71946e-24)
(0.427394 -0.00147147 0)
(0.42144 -0.00148665 0)
(0.414213 -0.00147388 -3.95582e-25)
(0.40634 -0.00142904 1.22613e-24)
(0.398693 -0.00136288 -2.48653e-24)
(0.391322 -0.00128277 1.67736e-24)
(0.384239 -0.00119441 1.71232e-24)
(0.377434 -0.00110213 -1.73393e-24)
(0.370883 -0.00100917 0)
(0.364557 -0.000917873 1.80774e-24)
(0.35842 -0.000829874 -3.68571e-24)
(0.352436 -0.000746271 3.77068e-24)
(0.346571 -0.000667734 -1.92944e-24)
(0.34079 -0.000594628 0)
(0.33506 -0.000527082 0)
(0.329351 -0.000465066 0)
(0.323633 -0.000408431 2.171e-24)
(0.317875 -0.000356955 -2.24138e-24)
(0.312047 -0.000310364 0)
(0.306116 -0.000268359 -2.41871e-24)
(0.300041 -0.000230624 2.52162e-24)
(0.293776 -0.000196844 0)
(0.287257 -0.000166709 -1.40027e-24)
(0.280397 -0.00013992 -1.06449e-27)
(0.273062 -0.000116196 1.62568e-24)
(0.265046 -9.52667e-05 1.81038e-24)
(0.256001 -7.68883e-05 -2.0849e-24)
(0.24532 -6.08128e-05 0)
(0.231907 -4.67699e-05 1.6197e-24)
(0.213784 -3.43814e-05 -2.20984e-24)
(0.187831 -2.32666e-05 -3.09096e-24)
(0.1515 -1.36164e-05 6.09748e-24)
(0.107502 -6.34579e-06 -2.32804e-24)
(0.0624298 -2.0058e-06 5.87581e-25)
(0.0202146 -1.41341e-07 -3.7324e-25)
(0.0301614 -2.17828e-07 -4.11627e-25)
(0.0928516 -3.82433e-06 3.1452e-24)
(0.158064 -1.28075e-05 -2.31218e-24)
(0.21531 -2.69972e-05 0)
(0.256048 -4.396e-05 0)
(0.283547 -6.23766e-05 0)
(0.303297 -8.26217e-05 2.75779e-24)
(0.318737 -0.000105239 -2.28073e-24)
(0.331657 -0.000130597 0)
(0.343007 -0.000159013 0)
(0.353309 -0.000190813 0)
(0.362864 -0.000226336 0)
(0.371849 -0.000265934 0)
(0.380369 -0.000309953 0)
(0.388481 -0.00035873 3.0312e-24)
(0.396209 -0.000412572 1.84945e-27)
(0.403551 -0.000471741 -5.96517e-24)
(0.410481 -0.000536413 2.96974e-24)
(0.416954 -0.000606644 0)
(0.422902 -0.000682315 0)
(0.428238 -0.000763052 0)
(0.432855 -0.000848123 0)
(0.436629 -0.000936369 0)
(0.439421 -0.00102606 0)
(0.441099 -0.00111481 0)
(0.441599 -0.00120024 0)
(0.440933 -0.00128082 0)
(0.439151 -0.00135494 0)
(0.436312 -0.00142044 0)
(0.432449 -0.00147441 0)
(0.427526 -0.00151301 -1.00353e-24)
(0.421453 -0.00153052 4.87251e-25)
(0.414098 -0.00151964 4.73041e-25)
(0.406099 -0.00147588 9.83162e-25)
(0.39834 -0.00140992 -9.91972e-25)
(0.390871 -0.00132926 0)
(0.383704 -0.00123975 -2.05232e-24)
(0.376826 -0.00114583 2.07878e-24)
(0.370214 -0.00105086 -2.12348e-24)
(0.363836 -0.000957279 2.15796e-24)
(0.357656 -0.000866809 0)
(0.351637 -0.000780621 0)
(0.345744 -0.000699447 0)
(0.339941 -0.000623701 -2.38013e-24)
(0.334195 -0.000553553 4.89268e-24)
(0.328474 -0.000489007 -2.51952e-24)
(0.322748 -0.000429937 0)
(0.316986 -0.000376142 0)
(0.311158 -0.000327359 0)
(0.30523 -0.0002833 -2.90935e-24)
(0.299161 -0.000243652 3.03559e-24)
(0.292905 -0.000208102 0)
(0.286398 -0.000176336 0)
(0.279552 -0.000148053 0)
(0.272235 -0.000122964 0)
(0.264238 -0.000100796 0)
(0.255214 -8.13025e-05 2.52028e-24)
(0.244556 -6.42351e-05 -3.04826e-24)
(0.231165 -4.93218e-05 1.96005e-24)
(0.213062 -3.61798e-05 5.2342e-28)
(0.187131 -2.44143e-05 -3.74298e-24)
(0.15086 -1.42407e-05 0)
(0.107005 -6.61211e-06 1.40769e-24)
(0.0621279 -2.07044e-06 -7.10323e-25)
(0.0201141 -1.22246e-07 -4.52235e-25)
(0.0303299 -2.39328e-07 0)
(0.0933657 -3.9149e-06 -2.96999e-24)
(0.158912 -1.31387e-05 2.72449e-24)
(0.21634 -2.76654e-05 -4.19964e-24)
(0.25712 -4.4987e-05 2.93646e-24)
(0.284629 -6.37546e-05 2.10315e-24)
(0.304389 -8.43529e-05 -1.61998e-24)
(0.319843 -0.000107338 0)
(0.332779 -0.000133091 0)
(0.344145 -0.000161938 0)
(0.354461 -0.000194216 -2.00149e-24)
(0.364028 -0.000230275 1.90994e-24)
(0.373023 -0.000270474 0)
(0.381549 -0.00031517 0)
(0.389663 -0.00036471 0)
(0.397388 -0.00041941 0)
(0.404721 -0.000479538 0)
(0.411636 -0.00054528 0)
(0.418086 -0.000616703 0)
(0.424001 -0.000693693 0)
(0.429294 -0.000775887 0)
(0.433857 -0.000862573 0)
(0.437562 -0.000952643 0)
(0.440269 -0.00104433 0)
(0.44185 -0.00113527 0)
(0.44225 -0.00122316 0)
(0.441485 -0.0013065 0)
(0.439604 -0.00138367 0)
(0.436666 -0.00145239 0)
(0.4327 -0.00150963 0)
(0.427667 -0.00155136 0)
(0.421476 -0.00157159 0)
(0.41399 -0.00156269 0)
(0.405863 -0.00151964 0)
(0.397992 -0.00145326 0)
(0.390424 -0.00137135 -2.35465e-24)
(0.383171 -0.00127998 2.38258e-24)
(0.37622 -0.00118381 -2.43121e-24)
(0.369546 -0.00108634 2.46731e-24)
(0.363115 -0.000990134 2.52387e-24)
(0.356891 -0.000896998 -5.14938e-24)
(0.350836 -0.000808166 -6.44491e-27)
(0.344914 -0.000724418 -5.97269e-27)
(0.339088 -0.0006462 5.5549e-24)
(0.333324 -0.000573705 -2.85695e-24)
(0.327591 -0.00050695 -2.9517e-24)
(0.321857 -0.000445818 3.04577e-24)
(0.316092 -0.000390112 0)
(0.310263 -0.000339572 0)
(0.304338 -0.000293906 0)
(0.298276 -0.000252799 0)
(0.29203 -0.000215931 0)
(0.285535 -0.000182983 0)
(0.278704 -0.000153643 0)
(0.271405 -0.000127618 0)
(0.263428 -0.000104627 0)
(0.254427 -8.44124e-05 2.96755e-24)
(0.243792 -6.67169e-05 -3.5922e-24)
(0.230422 -5.12499e-05 0)
(0.212336 -3.76067e-05 3.15841e-24)
(0.186424 -2.53774e-05 -8.83232e-24)
(0.150217 -1.47978e-05 5.79811e-24)
(0.106512 -6.869e-06 0)
(0.0618336 -2.1583e-06 0)
(0.0200182 -1.33381e-07 0)
(0.0305065 -2.42025e-07 0)
(0.0938996 -3.99406e-06 0)
(0.159797 -1.34766e-05 0)
(0.217417 -2.84023e-05 0)
(0.258231 -4.61745e-05 3.37091e-24)
(0.285741 -6.54113e-05 7.25629e-28)
(0.305507 -8.65093e-05 -1.85954e-24)
(0.320971 -0.000110037 3.08091e-24)
(0.33392 -0.000136381 1.12148e-27)
(0.345301 -0.000165877 -2.45467e-24)
(0.355631 -0.000198869 0)
(0.36521 -0.000235717 0)
(0.374214 -0.000276789 0)
(0.382746 -0.000322451 4.15342e-24)
(0.390862 -0.000373055 -4.08742e-24)
(0.398584 -0.000428926 0)
(0.405908 -0.000490338 4.01889e-24)
(0.412807 -0.000557481 -3.99697e-24)
(0.419233 -0.000630421 0)
(0.425115 -0.000709049 3.96389e-24)
(0.430365 -0.000793 -7.8735e-24)
(0.434872 -0.00088157 3.89547e-24)
(0.438508 -0.000973704 0)
(0.44113 -0.00106758 0)
(0.442615 -0.00116087 0)
(0.442916 -0.00125139 -3.38465e-24)
(0.442052 -0.00133766 3.19207e-24)
(0.440072 -0.00141803 3.02015e-24)
(0.437035 -0.00149013 -2.85454e-24)
(0.432966 -0.00155079 0)
(0.427821 -0.0015958 -1.32562e-24)
(0.421508 -0.0016189 1.29345e-24)
(0.413889 -0.00161216 0)
(0.405631 -0.00157005 0)
(0.397643 -0.00150346 0)
(0.389973 -0.00142044 -2.67115e-24)
(0.382631 -0.0013273 5.41594e-24)
(0.375603 -0.00122887 -5.50714e-24)
(0.368863 -0.00112883 5.60794e-24)
(0.362377 -0.00102984 -5.72026e-24)
(0.356107 -0.000933816 5.84591e-24)
(0.350014 -0.000842067 -2.98983e-24)
(0.34406 -0.000755429 0)
(0.338209 -0.000674389 0)
(0.332427 -0.000599172 0)
(0.32668 -0.000529818 -3.36108e-24)
(0.320936 -0.000466229 -4.43813e-27)
(0.315166 -0.000408215 7.1993e-24)
(0.309336 -0.000355525 3.67511e-27)
(0.303413 -0.000307866 -3.89375e-24)
(0.297357 -0.000264924 0)
(0.291119 -0.000226377 4.2846e-24)
(0.284637 -0.0001919 -9.07482e-24)
(0.277821 -0.000161177 4.85865e-24)
(0.270539 -0.000133906 0)
(0.262584 -0.000109799 0)
(0.253605 -8.85905e-05 -3.40636e-24)
(0.242994 -7.00169e-05 4.12697e-24)
(0.229648 -5.37778e-05 -2.65804e-24)
(0.211582 -3.94536e-05 3.63377e-24)
(0.185692 -2.66188e-05 0)
(0.14955 -1.55212e-05 0)
(0.105999 -7.20262e-06 0)
(0.0615257 -2.25841e-06 0)
(0.0199171 -1.35606e-07 0)
(0.0306817 -2.2223e-07 -1.27851e-24)
(0.0944304 -4.10296e-06 1.94064e-24)
(0.160675 -1.38058e-05 0)
(0.218484 -2.9106e-05 0)
(0.259335 -4.72818e-05 0)
(0.286853 -6.69321e-05 0)
(0.306627 -8.84741e-05 0)
(0.322104 -0.000112487 0)
(0.335068 -0.000139366 3.04197e-24)
(0.346464 -0.000169455 -2.76956e-24)
(0.356808 -0.000203109 0)
(0.366399 -0.000240696 -4.95247e-24)
(0.375412 -0.000282595 4.79074e-24)
(0.38395 -0.000329179 0)
(0.392068 -0.000380813 4.61078e-24)
(0.399787 -0.000437828 -4.55938e-24)
(0.407103 -0.000500506 0)
(0.413986 -0.000569046 0)
(0.420388 -0.000643519 0)
(0.426238 -0.000723823 0)
(0.431445 -0.000809592 0)
(0.435897 -0.000900126 0)
(0.439465 -0.000994419 0)
(0.442003 -0.00109061 0)
(0.443393 -0.0011864 0)
(0.443596 -0.00127976 0)
(0.442634 -0.0013692 0)
(0.440557 -0.00145305 3.36823e-24)
(0.43742 -0.00152881 -3.18367e-24)
(0.433247 -0.00159315 0)
(0.427989 -0.00164167 -1.4788e-24)
(0.421551 -0.00166783 1.44337e-24)
(0.413796 -0.00166336 0)
(0.405403 -0.00162217 0)
(0.397295 -0.00155525 0)
(0.38952 -0.00147095 0)
(0.382086 -0.00137585 0)
(0.374978 -0.00127498 0)
(0.36817 -0.00117217 0)
(0.361626 -0.00107023 0)
(0.355308 -0.000971181 0)
(0.349175 -0.00087639 0)
(0.343188 -0.000786755 -3.43835e-24)
(0.337311 -0.000702806 -6.12315e-27)
(0.331508 -0.000624798 3.6408e-24)
(0.325745 -0.000552791 0)
(0.319991 -0.0004867 0)
(0.314214 -0.000426347 0)
(0.308382 -0.000371483 0)
(0.302461 -0.000321817 0)
(0.29641 -0.000277033 0)
(0.290181 -0.000236804 0)
(0.283711 -0.0002008 0)
(0.27691 -0.000168698 0)
(0.269647 -0.000140188 0)
(0.261712 -0.000114975 0)
(0.252756 -9.27863e-05 0)
(0.242169 -7.33467e-05 0)
(0.228846 -5.6341e-05 0)
(0.210798 -4.13285e-05 0)
(0.18493 -2.78669e-05 0)
(0.148856 -1.62339e-05 0)
(0.105467 -7.52933e-06 4.30046e-24)
(0.0612073 -2.36119e-06 -4.33569e-24)
(0.0198129 -1.42791e-07 0)
(0.0308627 -2.06571e-07 0)
(0.0949817 -4.22004e-06 0)
(0.161585 -1.41502e-05 0)
(0.219584 -2.98193e-05 6.05036e-24)
(0.260468 -4.83902e-05 7.59249e-28)
(0.287986 -6.84541e-05 -3.0164e-24)
(0.307764 -9.04479e-05 0)
(0.323251 -0.000114961 0)
(0.336228 -0.000142398 0)
(0.347638 -0.000173111 0)
(0.357997 -0.000207462 0)
(0.3676 -0.000245831 0)
(0.376623 -0.000288603 0)
(0.385167 -0.000336162 0)
(0.393287 -0.000388881 0)
(0.401003 -0.000447104 0)
(0.40831 -0.000511123 0)
(0.415177 -0.000581147 0)
(0.421556 -0.00065726 0)
(0.427373 -0.000739363 0)
(0.432537 -0.000827088 0)
(0.436934 -0.000919731 0)
(0.440433 -0.00101632 0)
(0.442887 -0.00111495 0)
(0.444184 -0.00121338 -8.76137e-24)
(0.444291 -0.00130976 4.13661e-24)
(0.443233 -0.00140259 -7.23176e-27)
(0.441058 -0.00149013 3.68946e-24)
(0.437821 -0.00156978 -3.50423e-24)
(0.433542 -0.00163804 3.34459e-24)
(0.428169 -0.0016903 0)
(0.421605 -0.00171973 0)
(0.41371 -0.00171771 0)
(0.405178 -0.00167756 0)
(0.396947 -0.00161036 3.22907e-24)
(0.389063 -0.00152478 -3.26498e-24)
(0.381534 -0.00142764 0)
(0.374344 -0.00132423 3.38361e-24)
(0.367465 -0.00121853 -3.43756e-24)
(0.360861 -0.00111349 7.03508e-24)
(0.354492 -0.00101123 -7.17849e-24)
(0.348316 -0.000913214 0)
(0.342295 -0.000820396 -7.57508e-24)
(0.33639 -0.00073335 1.16848e-23)
(0.330564 -0.000652364 -4.01672e-24)
(0.324785 -0.000577522 0)
(0.319019 -0.000508756 0)
(0.313234 -0.000445896 0)
(0.3074 -0.000388698 0)
(0.301479 -0.000336874 0)
(0.295433 -0.000290106 0)
(0.289212 -0.000248063 0)
(0.282754 -0.00021041 0)
(0.275968 -0.000176816 3.04298e-24)
(0.268723 -0.000146965 -3.31551e-24)
(0.260809 -0.000120554 0)
(0.251877 -9.72995e-05 4.28285e-24)
(0.241316 -7.69197e-05 -5.19833e-24)
(0.228016 -5.90857e-05 0)
(0.209989 -4.33375e-05 0)
(0.184144 -2.92161e-05 0)
(0.148142 -1.70179e-05 0)
(0.10492 -7.89262e-06 0)
(0.0608792 -2.47457e-06 2.41439e-24)
(0.0197054 -1.49651e-07 -1.5439e-24)
(0.0310427 -2.30507e-07 1.57917e-24)
(0.0955319 -4.2741e-06 -2.38878e-24)
(0.162488 -1.44477e-05 0)
(0.220672 -3.044e-05 6.64542e-24)
(0.261595 -4.93809e-05 -9.24898e-24)
(0.28912 -6.98389e-05 -7.87572e-28)
(0.308905 -9.22655e-05 2.55431e-24)
(0.324404 -0.000117263 0)
(0.337397 -0.000145244 3.71175e-24)
(0.348822 -0.000176567 -3.38051e-24)
(0.359195 -0.000211605 0)
(0.368811 -0.000250742 0)
(0.377844 -0.000294375 0)
(0.386394 -0.000342896 0)
(0.394516 -0.00039669 5.61777e-24)
(0.40223 -0.000456115 -5.55115e-24)
(0.409528 -0.000521475 5.50784e-24)
(0.416381 -0.000592997 2.37352e-27)
(0.422736 -0.000670782 2.48382e-27)
(0.428521 -0.000754741 -5.40401e-24)
(0.433642 -0.000844515 0)
(0.437984 -0.000939391 0)
(0.441415 -0.0010384 0)
(0.443786 -0.00113963 0)
(0.44499 -0.00124089 9.53065e-24)
(0.445003 -0.0013405 -1.80248e-23)
(0.443849 -0.00143696 4.2401e-24)
(0.441577 -0.00152845 8.0237e-24)
(0.43824 -0.00161222 -3.7972e-24)
(0.433854 -0.00168463 0)
(0.428364 -0.00174086 0)
(0.42167 -0.00177376 0)
(0.413632 -0.00177433 0)
(0.404958 -0.00173529 0)
(0.396599 -0.0016678 3.51085e-24)
(0.388603 -0.00158088 -3.55058e-24)
(0.380975 -0.00148164 0)
(0.3737 -0.00137557 3.68034e-24)
(0.366748 -0.00126685 -3.74036e-24)
(0.360081 -0.00115858 0)
(0.353658 -0.00105299 0)
(0.347438 -0.000951615 0)
(0.34138 -0.000855483 0)
(0.335444 -0.000765212 0)
(0.329595 -0.000681126 -4.39114e-24)
(0.323797 -0.000603332 4.53695e-24)
(0.318018 -0.000531778 0)
(0.312225 -0.000466307 0)
(0.306386 -0.000406679 0)
(0.300466 -0.000352608 -5.31739e-24)
(0.294423 -0.000303775 5.56957e-24)
(0.288211 -0.000259844 0)
(0.281763 -0.000220474 0)
(0.274993 -0.000185329 -3.34462e-24)
(0.267766 -0.000154081 3.64673e-24)
(0.259874 -0.000126421 -4.07644e-24)
(0.250966 -0.000102056 4.71655e-24)
(0.24043 -8.0694e-05 0)
(0.227155 -6.19908e-05 3.70226e-24)
(0.209147 -4.54642e-05 6.85641e-28)
(0.183325 -3.06381e-05 -7.09054e-24)
(0.147398 -1.7837e-05 -4.63662e-24)
(0.10435 -8.27009e-06 5.27963e-24)
(0.0605382 -2.59424e-06 0)
(0.0195937 -1.55246e-07 2.47617e-35)
(0.0312266 -2.51598e-07 0)
(0.0960881 -4.34891e-06 0)
(0.163412 -1.47854e-05 -4.74432e-24)
(0.221792 -3.11464e-05 3.61331e-24)
(0.262746 -5.04969e-05 0)
(0.29027 -7.13776e-05 -3.59465e-24)
(0.310059 -9.42587e-05 -2.77591e-24)
(0.325569 -0.000119758 4.60247e-24)
(0.338575 -0.000148298 0)
(0.350016 -0.000180246 -3.67606e-24)
(0.360403 -0.00021598 3.44079e-24)
(0.370032 -0.000255896 -6.56897e-24)
(0.379074 -0.000300396 1.27045e-23)
(0.387631 -0.000349885 -1.24064e-23)
(0.395756 -0.000404758 6.09851e-24)
(0.403467 -0.000465385 0)
(0.410757 -0.000532089 5.97584e-24)
(0.417595 -0.000605114 2.44498e-27)
(0.423928 -0.000684582 -5.89455e-24)
(0.429681 -0.000770427 0)
(0.434759 -0.000862302 0)
(0.439047 -0.000959501 0)
(0.44241 -0.00106104 0)
(0.444698 -0.00116501 0)
(0.445812 -0.00126928 1.02537e-23)
(0.445731 -0.00137234 -9.68237e-24)
(0.444484 -0.00147264 0)
(0.442115 -0.0015683 0)
(0.438677 -0.00165643 0)
(0.434183 -0.00173326 -3.91815e-24)
(0.428574 -0.00179369 5.68553e-24)
(0.421747 -0.00183029 -9.2467e-25)
(0.413562 -0.00183363 -1.79968e-24)
(0.404741 -0.0017958 -9.35706e-25)
(0.396252 -0.00172805 1.88335e-24)
(0.38814 -0.00163976 0)
(0.38041 -0.00153832 0)
(0.373046 -0.00142948 -3.96319e-24)
(0.366018 -0.0013176 4.0292e-24)
(0.359285 -0.00120595 0)
(0.352807 -0.00109686 0)
(0.34654 -0.000991965 0)
(0.340443 -0.000892356 0)
(0.334475 -0.000798701 0)
(0.3286 -0.00071136 4.74687e-24)
(0.322782 -0.000630464 -4.90873e-24)
(0.316988 -0.000555981 0)
(0.311185 -0.000487763 0)
(0.305341 -0.000425577 0)
(0.29942 -0.000369139 -5.77272e-24)
(0.293381 -0.000318128 -3.85485e-27)
(0.287176 -0.000272204 1.27662e-23)
(0.28074 -0.00023102 3.31934e-27)
(0.273984 -0.000194233 -3.639e-24)
(0.266776 -0.000161506 1.53023e-27)
(0.258905 -0.000132523 1.52655e-27)
(0.250022 -0.000106981 -5.14826e-24)
(0.239512 -8.4579e-05 0)
(0.226262 -6.49591e-05 0)
(0.208276 -4.76174e-05 0)
(0.182479 -3.20564e-05 7.7615e-24)
(0.14663 -1.8641e-05 -1.01386e-23)
(0.103762 -8.64365e-06 0)
(0.0601862 -2.71584e-06 0)
(0.0194784 -1.64422e-07 0)
(0.0314097 -2.19741e-07 0)
(0.0966443 -4.48612e-06 0)
(0.164333 -1.51278e-05 0)
(0.222905 -3.18599e-05 7.79672e-24)
(0.263893 -5.16029e-05 -5.41107e-24)
(0.291422 -7.28993e-05 0)
(0.311219 -9.62479e-05 0)
(0.326741 -0.000122273 4.96496e-24)
(0.339763 -0.000151399 -4.35079e-24)
(0.351219 -0.000183997 3.96618e-24)
(0.36162 -0.000220451 -1.11397e-23)
(0.371262 -0.000261164 7.08452e-24)
(0.380314 -0.000306545 0)
(0.388878 -0.00035701 0)
(0.397006 -0.000412962 -6.57644e-24)
(0.404715 -0.000474787 1.29888e-23)
(0.411998 -0.000542824 -6.43356e-24)
(0.418821 -0.000617341 6.38825e-24)
(0.425132 -0.000698484 -6.34101e-24)
(0.430855 -0.000786219 -6.29405e-24)
(0.435892 -0.000880226 6.2268e-24)
(0.440125 -0.000979826 0)
(0.44342 -0.00108401 0)
(0.445626 -0.0011909 0)
(0.446651 -0.0012984 0)
(0.446479 -0.00140513 0)
(0.445138 -0.0015095 0)
(0.442673 -0.00160957 0)
(0.439134 -0.00170232 0)
(0.43453 -0.00178379 -4.18142e-24)
(0.428799 -0.00184866 4.04246e-24)
(0.421837 -0.00188916 0)
(0.413501 -0.00189545 9.62889e-25)
(0.404529 -0.00185892 9.99442e-25)
(0.395905 -0.00179093 -2.01204e-24)
(0.387673 -0.00170123 0)
(0.379838 -0.00159752 0)
(0.372382 -0.00148581 0)
(0.365274 -0.00137066 0)
(0.358473 -0.00125549 0)
(0.351936 -0.00114276 -9.0365e-24)
(0.34562 -0.00103421 1.85367e-23)
(0.339481 -0.00093098 -9.53171e-24)
(0.33348 -0.000833801 0)
(0.327577 -0.000743067 0)
(0.321737 -0.000658938 0)
(0.315927 -0.000581398 5.47975e-24)
(0.310114 -0.000510312 5.34942e-27)
(0.304263 -0.000445453 -1.18883e-23)
(0.29834 -0.00038654 1.24347e-23)
(0.292304 -0.00033325 -1.30547e-23)
(0.286106 -0.000285239 -3.76913e-27)
(0.279681 -0.000242156 7.32125e-24)
(0.27294 -0.000203647 0)
(0.26575 -0.000169371 0)
(0.257902 -0.000139 -4.81189e-24)
(0.249044 -0.000112224 5.57733e-24)
(0.23856 -8.87318e-05 -6.79351e-24)
(0.225336 -6.81488e-05 1.31866e-23)
(0.20737 -4.99469e-05 -6.03217e-24)
(0.181598 -3.36114e-05 0)
(0.145831 -1.95367e-05 5.50085e-24)
(0.103151 -9.05754e-06 -6.24924e-24)
(0.0598208 -2.84538e-06 -3.14506e-24)
(0.0193587 -1.72603e-07 2.01401e-24)
(0.0315981 -1.92519e-07 0)
(0.0972197 -4.62581e-06 0)
(0.165279 -1.55163e-05 0)
(0.224042 -3.26585e-05 0)
(0.265063 -5.28383e-05 0)
(0.292593 -7.45975e-05 0)
(0.312394 -9.84585e-05 0)
(0.327926 -0.00012505 0)
(0.340962 -0.000154798 0)
(0.352432 -0.000188079 0)
(0.362848 -0.000225282 0)
(0.372502 -0.000266815 0)
(0.381565 -0.000313095 7.33488e-24)
(0.390135 -0.000364546 -1.43151e-23)
(0.398265 -0.000421583 -2.41169e-27)
(0.405972 -0.000484604 -2.47067e-27)
(0.413247 -0.000553968 6.8751e-24)
(0.420058 -0.000629965 6.82268e-24)
(0.426347 -0.000712772 -6.7679e-24)
(0.43204 -0.000802388 0)
(0.437036 -0.000898535 0)
(0.441218 -0.00100058 0)
(0.444444 -0.0011075 0)
(0.44657 -0.00121745 0)
(0.447508 -0.00132838 0)
(0.447246 -0.00143897 -1.09589e-23)
(0.445813 -0.00154764 1.03145e-23)
(0.443251 -0.00165237 0)
(0.43961 -0.00174998 0)
(0.434895 -0.00183638 0)
(0.42904 -0.00190595 0)
(0.421939 -0.00195058 0)
(0.413449 -0.00196001 0)
(0.404322 -0.0019249 0)
(0.395558 -0.00185671 -4.28177e-24)
(0.387202 -0.00176556 4.33237e-24)
(0.379258 -0.00165949 0)
(0.371707 -0.00154478 0)
(0.364516 -0.00142621 -9.16812e-24)
(0.357644 -0.00130737 9.34941e-24)
(0.351046 -0.00119084 0)
(0.344678 -0.00107845 0)
(0.338496 -0.00097144 0)
(0.332458 -0.000870575 0)
(0.326526 -0.000776293 0)
(0.320663 -0.000688782 0)
(0.314836 -0.000608046 0)
(0.30901 -0.000533961 0)
(0.303152 -0.000466307 0)
(0.297226 -0.000404804 0)
(0.291192 -0.000349128 0)
(0.285 -0.000298934 0)
(0.278585 -0.000253861 7.85712e-24)
(0.271859 -0.00021355 -8.44731e-24)
(0.264688 -0.00017765 0)
(0.256862 -0.000145826 0)
(0.24803 -0.000117757 0)
(0.237574 -9.31214e-05 0)
(0.224376 -7.15291e-05 0)
(0.206433 -5.24251e-05 -6.51248e-24)
(0.180687 -3.52784e-05 1.82016e-23)
(0.145006 -2.05077e-05 -1.18605e-23)
(0.102521 -9.50744e-06 0)
(0.0594434 -2.98484e-06 0)
(0.019235 -1.82819e-07 0)
(0.0317874 -2.28649e-07 0)
(0.0978013 -4.64366e-06 -6.49969e-24)
(0.166229 -1.58241e-05 5.87342e-24)
(0.225178 -3.33405e-05 0)
(0.266236 -5.39662e-05 0)
(0.29377 -7.62032e-05 -4.40428e-24)
(0.313578 -0.000100582 3.40362e-24)
(0.329122 -0.000127744 5.65496e-24)
(0.342172 -0.000158118 -4.95843e-24)
(0.353657 -0.000192086 -4.52124e-24)
(0.364087 -0.00023004 4.23209e-24)
(0.373752 -0.000272395 0)
(0.382825 -0.000319575 0)
(0.391402 -0.000372014 0)
(0.399534 -0.000430138 0)
(0.407239 -0.000494362 0)
(0.414507 -0.000565063 0)
(0.421304 -0.000642559 0)
(0.427574 -0.000727057 0)
(0.433238 -0.000818595 0)
(0.438196 -0.000916936 0)
(0.442325 -0.00102152 0)
(0.445486 -0.0011313 0)
(0.447533 -0.00124446 0)
(0.448386 -0.00135903 0)
(0.448035 -0.00147374 0)
(0.446509 -0.00158696 0)
(0.443852 -0.00169661 0)
(0.440108 -0.00179938 0)
(0.435279 -0.00189097 0)
(0.429298 -0.00196552 0)
(0.422055 -0.00201455 0)
(0.413406 -0.00202732 0)
(0.404119 -0.00199374 0)
(0.395211 -0.00192537 0)
(0.386727 -0.00183273 0)
(0.37867 -0.00172423 0)