/*--------------------------------*- C++ -*----------------------------------*\
| =========                 |                                                 |
| \\      /  F ield         | OpenFOAM: The Open Source CFD Toolbox           |
|  \\    /   O peration     | Version:  2412                                  |
|   \\  /    A nd           | Website:  www.openfoam.com                      |
|    \\/     M anipulation  |                                                 |
\*---------------------------------------------------------------------------*/
FoamFile
{
    version     2.0;
    format      ascii;
    arch        "LSB;label=32;scalar=64";
    class       volScalarField;
    location    "2000";
    object      Ux;
}
// * * * * * * * * * * * * * * * * * * * * * * * * * * * * * * * * * * * * * //

dimensions      [0 1 -1 0 0 0 0];

internalField   nonuniform List<scalar> 
32240
(
0.0292118
0.0900177
0.15341
0.20965
0.250187
0.277656
0.297365
0.312738
0.325578
0.336845
0.34707
0.356558
0.365492
0.373979
0.382082
0.389829
0.397221
0.40424
0.410846
0.416979
0.422559
0.427489
0.431651
0.434914
0.437136
0.438212
0.438117
0.436892
0.4346
0.431288
0.426944
0.421491
0.414803
0.407451
0.400261
0.393286
0.386546
0.380033
0.373729
0.367608
0.36164
0.355792
0.350035
0.344337
0.338668
0.333
0.327305
0.321555
0.315721
0.309769
0.303664
0.297357
0.290786
0.283864
0.276458
0.268363
0.259231
0.248462
0.234966
0.216777
0.19075
0.154183
0.109596
0.063711
0.0206408
0.0295552
0.0909694
0.154897
0.211412
0.251989
0.27945
0.299158
0.314537
0.32739
0.338673
0.348914
0.358415
0.367359
0.375852
0.383954
0.391692
0.399066
0.406057
0.41262
0.418697
0.424204
0.429041
0.433089
0.436217
0.438278
0.43918
0.438912
0.43752
0.435066
0.431594
0.427084
0.421457
0.414583
0.407053
0.399706
0.392595
0.385736
0.379122
0.372731
0.366537
0.360508
0.354611
0.348814
0.343084
0.337391
0.331706
0.326
0.320244
0.314408
0.30846
0.302361
0.296063
0.289504
0.282596
0.275207
0.26713
0.258017
0.247267
0.233788
0.215611
0.1896
0.153096
0.108699
0.0631194
0.0204283
0.0296165
0.091229
0.155416
0.212102
0.252726
0.280206
0.299932
0.315335
0.328212
0.339518
0.349779
0.359299
0.368257
0.376761
0.38487
0.392609
0.39998
0.406959
0.413506
0.419556
0.425027
0.429818
0.433808
0.436865
0.438846
0.439661
0.439309
0.437835
0.435302
0.431751
0.427157
0.42144
0.414468
0.406844
0.399415
0.392234
0.385315
0.37865
0.372219
0.365991
0.359936
0.354019
0.348207
0.342467
0.336768
0.33108
0.325375
0.319622
0.313793
0.307854
0.301766
0.295483
0.288941
0.282053
0.274686
0.266633
0.257548
0.246825
0.233372
0.215216
0.189225
0.152781
0.108504
0.0630454
0.0204224
0.0298308
0.0918467
0.156394
0.21327
0.253932
0.281416
0.301149
0.316561
0.329449
0.340768
0.35104
0.360569
0.369534
0.378041
0.386149
0.393882
0.401241
0.408202
0.414721
0.420734
0.426156
0.430885
0.434799
0.437763
0.439636
0.440339
0.439874
0.43829
0.435649
0.431987
0.427278
0.421437
0.414333
0.406579
0.399036
0.391756
0.384751
0.378013
0.371518
0.365239
0.35914
0.353187
0.347346
0.341583
0.335867
0.330167
0.324453
0.318697
0.312867
0.306929
0.300847
0.294571
0.288038
0.281161
0.273808
0.265771
0.256703
0.245999
0.232565
0.214427
0.188457
0.152068
0.10793
0.0626792
0.0202932
0.029984
0.0923187
0.157188
0.214246
0.254948
0.282442
0.302186
0.317613
0.330519
0.341854
0.352142
0.361685
0.370661
0.379176
0.387286
0.395018
0.402369
0.409316
0.415812
0.421794
0.427174
0.431848
0.435693
0.438572
0.440349
0.440952
0.440388
0.438706
0.435968
0.432208
0.427394
0.42144
0.414213
0.40634
0.398693
0.391322
0.384239
0.377434
0.370883
0.364557
0.35842
0.352436
0.346571
0.34079
0.33506
0.329351
0.323633
0.317875
0.312047
0.306116
0.300041
0.293776
0.287257
0.280397
0.273062
0.265046
0.256001
0.24532
0.231907
0.213784
0.187831
0.1515
0.107502
0.0624298
0.0202146
0.0301614
0.0928516
0.158064
0.21531
0.256048
0.283547
0.303297
0.318737
0.331657
0.343007
0.353309
0.362864
0.371849
0.380369
0.388481
0.396209
0.403551
0.410481
0.416954
0.422902
0.428238
0.432855
0.436629
0.439421
0.441099
0.441599
0.440933
0.439151
0.436312
0.432449
0.427526
0.421453
0.414098
0.406099
0.39834
0.390871
0.383704
0.376826
0.370214
0.363836
0.357656
0.351637
0.345744
0.339941
0.334195
0.328474
0.322748
0.316986
0.311158
0.30523
0.299161
0.292905
0.286398
0.279552
0.272235
0.264238
0.255214
0.244556
0.231165
0.213062
0.187131
0.15086
0.107005
0.0621279
0.0201141
0.0303299
0.0933657
0.158912
0.21634
0.25712
0.284629
0.304389
0.319843
0.332779
0.344145
0.354461
0.364028
0.373023
0.381549
0.389663
0.397388
0.404721
0.411636
0.418086
0.424001
0.429294
0.433857
0.437562
0.440269
0.44185
0.44225
0.441485
0.439604
0.436666
0.4327
0.427667
0.421476
0.41399
0.405863
0.397992
0.390424
0.383171
0.37622
0.369546
0.363115
0.356891
0.350836
0.344914
0.339088
0.333324
0.327591
0.321857
0.316092
0.310263
0.304338
0.298276
0.29203
0.285535
0.278704
0.271405
0.263428
0.254427
0.243792
0.230422
0.212336
0.186424
0.150217
0.106512
0.0618336
0.0200182
0.0305065
0.0938996
0.159797
0.217417
0.258231
0.285741
0.305507
0.320971
0.33392
0.345301
0.355631
0.36521
0.374214
0.382746
0.390862
0.398584
0.405908
0.412807
0.419233
0.425115
0.430365
0.434872
0.438508
0.44113
0.442615
0.442916
0.442052
0.440072
0.437035
0.432966
0.427821
0.421508
0.413889
0.405631
0.397643
0.389973
0.382631
0.375603
0.368863
0.362377
0.356107
0.350014
0.34406
0.338209
0.332427
0.32668
0.320936
0.315166
0.309336
0.303413
0.297357
0.291119
0.284637
0.277821
0.270539
0.262584
0.253605
0.242994
0.229648
0.211582
0.185692
0.14955
0.105999
0.0615257
0.0199171
0.0306817
0.0944304
0.160675
0.218484
0.259335
0.286853
0.306627
0.322104
0.335068
0.346464
0.356808
0.366399
0.375412
0.38395
0.392068
0.399787
0.407103
0.413986
0.420388
0.426238
0.431445
0.435897
0.439465
0.442003
0.443393
0.443596
0.442634
0.440557
0.43742
0.433247
0.427989
0.421551
0.413796
0.405403
0.397295
0.38952
0.382086
0.374978
0.36817
0.361626
0.355308
0.349175
0.343188
0.337311
0.331508
0.325745
0.319991
0.314214
0.308382
0.302461
0.29641
0.290181
0.283711
0.27691
0.269647
0.261712
0.252756
0.242169
0.228846
0.210798
0.18493
0.148856
0.105467
0.0612073
0.0198129
0.0308627
0.0949817
0.161585
0.219584
0.260468
0.287986
0.307764
0.323251
0.336228
0.347638
0.357997
0.3676
0.376623
0.385167
0.393287
0.401003
0.40831
0.415177
0.421556
0.427373
0.432537
0.436934
0.440433
0.442887
0.444184
0.444291
0.443233
0.441058
0.437821
0.433542
0.428169
0.421605
0.41371
0.405178
0.396947
0.389063
0.381534
0.374344
0.367465
0.360861
0.354492
0.348316
0.342295
0.33639
0.330564
0.324785
0.319019
0.313234
0.3074
0.301479
0.295433
0.289212
0.282754
0.275968
0.268723
0.260809
0.251877
0.241316
0.228016
0.209989
0.184144
0.148142
0.10492
0.0608792
0.0197054
0.0310427
0.0955319
0.162488
0.220672
0.261595
0.28912
0.308905
0.324404
0.337397
0.348822
0.359195
0.368811
0.377844
0.386394
0.394516
0.40223
0.409528
0.416381
0.422736
0.428521
0.433642
0.437984
0.441415
0.443786
0.44499
0.445003
0.443849
0.441577
0.43824
0.433854
0.428364
0.42167
0.413632
0.404958
0.396599
0.388603
0.380975
0.3737
0.366748
0.360081
0.353658
0.347438
0.34138
0.335444
0.329595
0.323797
0.318018
0.312225
0.306386
0.300466
0.294423
0.288211
0.281763
0.274993
0.267766
0.259874
0.250966
0.24043
0.227155
0.209147
0.183325
0.147398
0.10435
0.0605382
0.0195937
0.0312266
0.0960881
0.163412
0.221792
0.262746
0.29027
0.310059
0.325569
0.338575
0.350016
0.360403
0.370032
0.379074
0.387631
0.395756
0.403467
0.410757
0.417595
0.423928
0.429681
0.434759
0.439047
0.44241
0.444698
0.445812
0.445731
0.444484
0.442115
0.438677
0.434183
0.428574
0.421747
0.413562
0.404741
0.396252
0.38814
0.38041
0.373046
0.366018
0.359285
0.352807
0.34654
0.340443
0.334475
0.3286
0.322782
0.316988
0.311185
0.305341
0.29942
0.293381
0.287176
0.28074
0.273984
0.266776
0.258905
0.250022
0.239512
0.226262
0.208276
0.182479
0.14663
0.103762
0.0601862
0.0194784
0.0314097
0.0966443
0.164333
0.222905
0.263893
0.291422
0.311219
0.326741
0.339763
0.351219
0.36162
0.371262
0.380314
0.388878
0.397006
0.404715
0.411998
0.418821
0.425132
0.430855
0.435892
0.440125
0.44342
0.445626
0.446651
0.446479
0.445138
0.442673
0.439134
0.43453
0.428799
0.421837
0.413501
0.404529
0.395905
0.387673
0.379838
0.372382
0.365274
0.358473
0.351936
0.34562
0.339481
0.33348
0.327577
0.321737
0.315927
0.310114
0.304263
0.29834
0.292304
0.286106
0.279681
0.27294
0.26575
0.257902
0.249044
0.23856
0.225336
0.20737
0.181598
0.145831
0.103151
0.0598208
0.0193587
0.0315981
0.0972197
0.165279
0.224042
0.265063
0.292593
0.312394
0.327926
0.340962
0.352432
0.362848
0.372502
0.381565
0.390135
0.398265
0.405972
0.413247
0.420058
0.426347
0.43204
0.437036
0.441218
0.444444
0.44657
0.447508
0.447246
0.445813
0.443251
0.43961
0.434895
0.42904
0.421939
0.413449
0.404322
0.395558
0.387202
0.379258
0.371707
0.364516
0.357644
0.351046
0.344678
0.338496
0.332458
0.326526
0.320663
0.314836
0.30901
0.303152
0.297226
0.291192
0.285
0.278585
0.271859
0.264688
0.256862
0.24803
0.237574
0.224376
0.206433
0.180687
0.145006
0.102521
0.0594434
0.019235
0.0317874
0.0978013
0.166229
0.225178
0.266236
0.29377
0.313578
0.329122
0.342172
0.353657
0.364087
0.373752
0.382825
0.391402
0.399534
0.407239
0.414507
0.421304
0.427574
0.433238
0.438196
0.442325
0.445486
0.447533
0.448386
0.448035
0.446509
0.443852
0.440108
0.435279
0.429298
0.422055
0.413406
0.404119
0.395211
0.386727
0.37867
0.37102
0.363743
0.356797
0.350136
0.343714
0.337486
0.33141
0.325446
0.319558
0.313711
0.307872
0.302005
0.296076
0.290043
0.283857
0.277452
0.27074
0.263588
0.255785
0.246979
0.236551
0.22338
0.205459
0.179741
0.144149
0.101867
0.0590523
0.0191068
0.0319801
0.0983815
0.167194
0.226344
0.26743
0.294964
0.314775
0.33033
0.343392
0.354892
0.365335
0.375012
0.384094
0.392677
0.400812
0.408515
0.415777
0.422561
0.428811
0.434448
0.439368
0.443448
0.446543
0.448513
0.449283
0.448845
0.447228
0.444474
0.440626
0.435683
0.429573
0.422185
0.413372
0.403921
0.394865
0.386249
0.378075
0.370322
0.362956
0.355933
0.349205
0.342726
0.33645
0.330333
0.324336
0.318421
0.312553
0.306699
0.300823
0.294889
0.288856
0.282675
0.27628
0.269583
0.262449
0.25467
0.24589
0.235491
0.222347
0.204449
0.17876
0.143262
0.10119
0.0586475
0.0189741
0.0321735
0.0989699
0.168166
0.22751
0.268627
0.296163
0.31598
0.331545
0.344621
0.356134
0.366591
0.37628
0.38537
0.39396
0.402098
0.4098
0.417056
0.423829
0.430061
0.435671
0.440555
0.444587
0.447619
0.449514
0.450202
0.449678
0.44797
0.445121
0.441168
0.436109
0.429867
0.42233
0.413349
0.403728
0.394519
0.385766
0.377471
0.369612
0.362153
0.355049
0.348252
0.341713
0.335387
0.329227
0.323195
0.317251
0.31136
0.305489
0.299602
0.293662
0.287629
0.281452
0.275067
0.268384
0.26127
0.253513
0.244761
0.234391
0.221275
0.203401
0.177743
0.142343
0.100489
0.0582285
0.0188367
0.0323709
0.0995738
0.169156
0.228693
0.26984
0.297374
0.317193
0.332767
0.345855
0.357382
0.367852
0.377553
0.386653
0.39525
0.403391
0.411093
0.418344
0.425106
0.431321
0.436907
0.441757
0.445743
0.448713
0.450535
0.451143
0.450535
0.448738
0.445792
0.441734
0.436556
0.430179
0.42249
0.413336
0.40354
0.394173
0.385279
0.376858
0.368889
0.361334
0.354146
0.347277
0.340676
0.334296
0.328091
0.322021
0.316046
0.310132
0.304242
0.298343
0.292396
0.286362
0.280189
0.273813
0.267143
0.260048
0.252315
0.24359
0.233251
0.220164
0.202315
0.176688
0.141391
0.0997643
0.0577949
0.0186945
0.0325696
0.100176
0.170155
0.229887
0.271061
0.298592
0.318412
0.333994
0.347095
0.358635
0.369119
0.378832
0.387943
0.396547
0.404693
0.412396
0.419642
0.426396
0.432595
0.438157
0.442974
0.446915
0.449827
0.451577
0.452108
0.451417
0.449532
0.446489
0.442325
0.437026
0.430512
0.422666
0.413334
0.403358
0.393828
0.384787
0.376237
0.368154
0.360498
0.353223
0.346278
0.339612
0.333176
0.326924
0.320814
0.314807
0.308866
0.302956
0.297043
0.291089
0.285052
0.278882
0.272515
0.265859
0.258783
0.251074
0.242378
0.232068
0.219012
0.201188
0.175594
0.140404
0.0990141
0.0573465
0.0185473
0.0327717
0.100791
0.171171
0.231102
0.272297
0.299822
0.319641
0.33523
0.348341
0.359895
0.370392
0.380118
0.389239
0.397852
0.406003
0.413708
0.420951
0.427697
0.433882
0.439422
0.444207
0.448106
0.45096
0.452642
0.453098
0.452326
0.450353
0.447214
0.442942
0.43752
0.430866
0.422858
0.413344
0.403182
0.393483
0.384291
0.375606
0.367404
0.359645
0.352279
0.345255
0.338521
0.332026
0.325725
0.319572
0.31353
0.307561
0.301631
0.295702
0.289739
0.283699
0.277531
0.271172
0.26453
0.257473
0.249788
0.24112
0.230842
0.217817
0.200018
0.174459
0.139382
0.0982371
0.0568821
0.018395
0.0329764
0.101416
0.172198
0.232318
0.27354
0.301057
0.320876
0.336471
0.349595
0.361162
0.371673
0.381412
0.390545
0.399166
0.407323
0.41503
0.422272
0.429011
0.435183
0.440702
0.445459
0.449316
0.452115
0.453731
0.454115
0.453264
0.451203
0.447968
0.443587
0.438039
0.431241
0.423068
0.413365
0.403011
0.393138
0.383789
0.374965
0.366641
0.358773
0.351313
0.344207
0.337402
0.330846
0.324491
0.318294
0.312215
0.306217
0.300263
0.294318
0.288344
0.282299
0.276134
0.269782
0.263153
0.256115
0.248455
0.239816
0.229571
0.216577
0.198805
0.173282
0.138323
0.0974335
0.0564019
0.0182374
0.0331831
0.102053
0.173231
0.233542
0.274779
0.302294
0.322111
0.337716
0.350851
0.362434
0.37296
0.382713
0.391858
0.400489
0.408653
0.416364
0.423605
0.430338
0.436499
0.442
0.446729
0.450546
0.453292
0.454846
0.455159
0.454231
0.452084
0.448751
0.444259
0.438585
0.431638
0.423296
0.413399
0.402847
0.392793
0.383283
0.374314
0.365862
0.357882
0.350324
0.343133
0.336253
0.329633
0.323223
0.316979
0.310861
0.304831
0.298852
0.292888
0.286903
0.280853
0.274688
0.268343
0.261728
0.254709
0.247073
0.238465
0.228253
0.215291
0.197547
0.172061
0.137226
0.0966017
0.0559049
0.0180742
0.0333877
0.102692
0.174275
0.234754
0.276032
0.303526
0.323348
0.338958
0.352109
0.363707
0.37425
0.384018
0.393177
0.401819
0.409991
0.417707
0.424949
0.431678
0.43783
0.443314
0.448017
0.451798
0.454494
0.455988
0.456234
0.45523
0.452997
0.449566
0.444962
0.439157
0.43206
0.423542
0.413445
0.402688
0.392448
0.38277
0.373652
0.365068
0.356972
0.349311
0.342031
0.335074
0.328386
0.321918
0.315625
0.309466
0.303401
0.297396
0.291413
0.285414
0.279358
0.273193
0.266854
0.260252
0.253252
0.245642
0.237064
0.226885
0.213957
0.196242
0.170796
0.136091
0.0957416
0.0553911
0.0179054
0.0336059
0.103326
0.175328
0.236023
0.277275
0.304782
0.324592
0.340212
0.353373
0.364986
0.375544
0.385328
0.394501
0.403155
0.411336
0.419057
0.426302
0.433029
0.439174
0.444645
0.449325
0.453071
0.45572
0.457157
0.457338
0.45626
0.453942
0.450413
0.445696
0.439758
0.432505
0.423808
0.413505
0.402537
0.392104
0.382252
0.372979
0.364257
0.35604
0.348274
0.3409
0.333862
0.327104
0.320576
0.314231
0.308028
0.301927
0.295893
0.289888
0.283876
0.277812
0.271646
0.265313
0.258723
0.251742
0.244157
0.235611
0.225467
0.212573
0.194887
0.169483
0.134914
0.094851
0.0548591
0.0177307
0.0337733
0.104489
0.1764
0.236977
0.27854
0.306036
0.325856
0.341477
0.354649
0.366276
0.376848
0.386645
0.395831
0.404496
0.412687
0.420415
0.427664
0.434391
0.440531
0.445991
0.450653
0.454367
0.456972
0.458356
0.458475
0.457325
0.454922
0.451295
0.446462
0.440389
0.432977
0.424094
0.413578
0.402391
0.391759
0.381727
0.372294
0.363429
0.355087
0.34721
0.33974
0.332618
0.325786
0.319194
0.312795
0.306545
0.300406
0.294342
0.288314
0.282285
0.276213
0.270045
0.263718
0.25714
0.250178
0.242619
0.234104
0.223996
0.211137
0.193481
0.168121
0.133695
0.0939296
0.0543089
0.0175498
0.0339809
0.105171
0.177465
0.238216
0.279821
0.307302
0.327122
0.342748
0.355931
0.367571
0.378157
0.387969
0.397167
0.405844
0.414045
0.421781
0.429035
0.435765
0.441903
0.447356
0.452001
0.455687
0.458252
0.459587
0.459647
0.458426
0.455939
0.452212
0.447263
0.441051
0.433475
0.424402
0.413666
0.402253
0.391414
0.381196
0.371596
0.362584
0.354111
0.34612
0.338549
0.331338
0.32443
0.317772
0.311315
0.305016
0.298837
0.29274
0.286688
0.280642
0.274559
0.268389
0.262065
0.255499
0.248556
0.241023
0.232541
0.222469
0.209647
0.192022
0.166708
0.132432
0.092976
0.0537395
0.0173626
0.0341923
0.105842
0.178538
0.239476
0.281105
0.308573
0.328389
0.34402
0.357215
0.368868
0.379468
0.389295
0.398507
0.407197
0.415409
0.423155
0.430417
0.437152
0.443291
0.448739
0.453372
0.457034
0.459562
0.460851
0.460854
0.459564
0.456994
0.453167
0.448099
0.441745
0.434002
0.424732
0.413769
0.402122
0.391069
0.380658
0.370885
0.361719
0.353111
0.345001
0.337325
0.330023
0.323035
0.316306
0.309789
0.30344
0.297218
0.291086
0.285007
0.278942
0.272848
0.266674
0.260355
0.2538
0.246876
0.239369
0.230919
0.220886
0.208101
0.190508
0.165242
0.131124
0.0919894
0.0531504
0.0171688
0.0344062
0.106524
0.179619
0.240742
0.282393
0.309848
0.329659
0.345295
0.3585
0.370167
0.380782
0.390623
0.39985
0.408554
0.416779
0.424536
0.431808
0.438551
0.444694
0.450141
0.454766
0.458407
0.460904
0.46215
0.462099
0.460742
0.458089
0.454162
0.448973
0.442474
0.434558
0.425086
0.413888
0.401999
0.390724
0.380112
0.37016
0.360835
0.352086
0.343852
0.336068
0.32867
0.321598
0.314797
0.308216
0.301813
0.295546
0.289377
0.28327
0.277184
0.271078
0.264899
0.258583
0.252039
0.245133
0.237653
0.229237
0.219242
0.206496
0.188936
0.163721
0.12977
0.0909689
0.0525412
0.0169683
0.0346236
0.107207
0.180708
0.242019
0.283687
0.311126
0.330932
0.346572
0.359787
0.371467
0.382098
0.391954
0.401197
0.409915
0.418155
0.425926
0.43321
0.439963
0.446114
0.451564
0.456184
0.459809
0.462278
0.463485
0.463384
0.461962
0.459227
0.455199
0.449886
0.443239
0.435145
0.425464
0.414023
0.401883
0.390378
0.379558
0.369421
0.359931
0.351036
0.342673
0.334775
0.327278
0.320118
0.313241
0.306594
0.300134
0.29382
0.287612
0.281474
0.275367
0.269246
0.263062
0.256747
0.250214
0.243327
0.235874
0.227493
0.217537
0.20483
0.187305
0.162144
0.128366
0.0899126
0.0519106
0.0167607
0.0348414
0.107895
0.181808
0.243305
0.284986
0.312408
0.332207
0.34785
0.361075
0.372768
0.383414
0.393287
0.402546
0.411281
0.419537
0.427323
0.434622
0.441389
0.447551
0.453008
0.457627
0.461242
0.463687
0.46486
0.464711
0.463226
0.460409
0.456278
0.45084
0.444041
0.435765
0.425867
0.414175
0.401775
0.390032
0.378997
0.368666
0.359004
0.349958
0.341461
0.333445
0.325844
0.318594
0.311637
0.304921
0.298401
0.292037
0.285788
0.279618
0.273487
0.267351
0.261159
0.254846
0.248323
0.241455
0.234029
0.225682
0.215767
0.203101
0.185611
0.160506
0.126912
0.0888197
0.0512584
0.0165459
0.0350595
0.108586
0.182915
0.244597
0.28629
0.313693
0.333484
0.349129
0.362363
0.37407
0.384732
0.394621
0.403898
0.412651
0.420925
0.428729
0.436046
0.442829
0.449006
0.454474
0.459098
0.462705
0.465132
0.466274
0.466081
0.464535
0.461637
0.457404
0.451838
0.444882
0.436418
0.426298
0.414346
0.401676
0.389685
0.378426
0.367895
0.358055
0.348851
0.340214
0.332076
0.324367
0.317022
0.309982
0.303194
0.296612
0.290194
0.283902
0.277698
0.271541
0.265388
0.259188
0.252876
0.246362
0.239513
0.232114
0.223803
0.21393
0.201305
0.183852
0.158807
0.125405
0.087688
0.050583
0.0163233
0.035278
0.109284
0.184029
0.245893
0.287596
0.314978
0.33476
0.350408
0.363651
0.375372
0.38605
0.395957
0.405252
0.414025
0.422319
0.430144
0.437481
0.444285
0.45048
0.455964
0.460596
0.464202
0.466616
0.467732
0.467498
0.465893
0.462915
0.458577
0.452882
0.445766
0.437107
0.426756
0.414535
0.401585
0.389337
0.377846
0.367107
0.357082
0.347713
0.338932
0.330667
0.322846
0.315401
0.308274
0.30141
0.294763
0.28829
0.281952
0.275711
0.269527
0.263356
0.257147
0.250834
0.244329
0.237498
0.230127
0.221853
0.212022
0.199441
0.182027
0.157044
0.123845
0.0865182
0.0498848
0.016093
0.035497
0.109986
0.185146
0.247192
0.288903
0.316263
0.336034
0.351684
0.364937
0.376671
0.387367
0.397293
0.406609
0.415402
0.423719
0.431567
0.438929
0.445756
0.451975
0.457478
0.462125
0.465734
0.468139
0.469235
0.468963
0.467301
0.464243
0.459801
0.453973
0.446692
0.437834
0.427244
0.414743
0.401503
0.388989
0.377256
0.3663
0.356083
0.346544
0.337613
0.329215
0.321277
0.313729
0.306512
0.299569
0.292853
0.286322
0.279936
0.273656
0.267442
0.261251
0.255031
0.248718
0.242221
0.235409
0.228066
0.219829
0.210042
0.197506
0.18013
0.155215
0.122228
0.085307
0.0491619
0.0158545
0.035718
0.110694
0.186268
0.248492
0.290209
0.317545
0.337306
0.352956
0.366219
0.377968
0.388682
0.398629
0.407966
0.416784
0.425125
0.433
0.440389
0.447245
0.453491
0.459019
0.463684
0.467303
0.469706
0.470784
0.470479
0.468762
0.465625
0.461078
0.455114
0.447664
0.438599
0.427762
0.414972
0.401431
0.388639
0.376655
0.365475
0.355058
0.345342
0.336254
0.327718
0.319658
0.312003
0.304691
0.297666
0.290878
0.284286
0.277849
0.271528
0.265283
0.259071
0.25284
0.246524
0.240036
0.233241
0.225927
0.217728
0.207986
0.195496
0.178161
0.153316
0.120554
0.084054
0.0484142
0.0156077
0.0359409
0.1114
0.187396
0.249799
0.291517
0.318826
0.338574
0.354226
0.367498
0.379263
0.389995
0.399964
0.409325
0.418169
0.426538
0.434443
0.441863
0.448751
0.455029
0.460587
0.465277
0.468911
0.471316
0.472383
0.472048
0.470279
0.467064
0.462409
0.456307
0.448684
0.439406
0.428313
0.415221
0.401367
0.388288
0.376043
0.364629
0.354004
0.344104
0.334854
0.326174
0.317987
0.310221
0.30281
0.295698
0.288836
0.28218
0.275689
0.269325
0.263047
0.256812
0.250567
0.244249
0.237768
0.230991
0.223706
0.215546
0.205851
0.193408
0.176115
0.151344
0.118818
0.0827567
0.04764
0.0153519
0.0361621
0.112111
0.188532
0.251111
0.292827
0.320107
0.339841
0.355493
0.368775
0.380555
0.391308
0.4013
0.410687
0.419559
0.427959
0.435896
0.443351
0.450276
0.456591
0.462184
0.466904
0.470559
0.472973
0.474034
0.473674
0.471854
0.468562
0.4638
0.457556
0.449754
0.440255
0.428897
0.415493
0.401313
0.387934
0.375419
0.363762
0.35292
0.342829
0.33341
0.324581
0.316262
0.308379
0.300866
0.293664
0.286723
0.279999
0.273452
0.267043
0.26073
0.25447
0.248211
0.241889
0.235414
0.228656
0.2214
0.21328
0.203633
0.191239
0.17399
0.149298
0.11702
0.0814147
0.0468391
0.0150872
0.0363855
0.112833
0.189673
0.252424
0.294138
0.321388
0.341108
0.356758
0.37005
0.381847
0.392621
0.402637
0.412052
0.420955
0.429388
0.437361
0.444855
0.45182
0.458177
0.46381
0.468567
0.472249
0.474679
0.47574
0.475358
0.473492
0.470122
0.465251
0.458863
0.450876
0.44115
0.429516
0.415788
0.40127
0.387579
0.374781
0.362871
0.351805
0.341515
0.33192
0.322935
0.31448
0.306475
0.298855
0.291559
0.284536
0.277742
0.271136
0.264678
0.258328
0.252041
0.245767
0.23944
0.232972
0.226231
0.219005
0.210926
0.201329
0.188986
0.171783
0.147174
0.115158
0.0800258
0.04601
0.0148128
0.036611
0.113555
0.190818
0.253742
0.295449
0.322667
0.342371
0.358022
0.371324
0.383139
0.393935
0.403977
0.413422
0.422356
0.430825
0.438838
0.446374
0.453385
0.459788
0.465469
0.470268
0.473985
0.476437
0.477503
0.477104
0.475193
0.471748
0.466766
0.460231
0.452054
0.442092
0.430172
0.416107
0.401236
0.387221
0.37413
0.361957
0.350657
0.34016
0.330382
0.321236
0.312637
0.304507
0.296774
0.28938
0.282272
0.275404
0.268736
0.262227
0.255838
0.249523
0.243232
0.236899
0.230437
0.223714
0.216518
0.208482
0.198936
0.186646
0.16949
0.144969
0.113229
0.0785893
0.0451524
0.0145289
0.0368348
0.114276
0.191966
0.25506
0.296758
0.323942
0.343632
0.359283
0.372596
0.384429
0.395249
0.405319
0.414795
0.423765
0.432272
0.440328
0.44791
0.454971
0.461427
0.46716
0.472009
0.475768
0.478249
0.479327
0.478915
0.476963
0.473443
0.46835
0.461662
0.45329
0.443083
0.430867
0.416451
0.401213
0.386861
0.373464
0.361017
0.349474
0.338761
0.328793
0.319479
0.310732
0.30247
0.294621
0.287124
0.279926
0.272981
0.266248
0.259686
0.253255
0.246911
0.240601
0.234262
0.227805
0.221101
0.213936
0.205942
0.19645
0.184215
0.167109
0.142683
0.111233
0.0771039
0.0442655
0.014235
0.0370569
0.114995
0.193111
0.256374
0.298059
0.32521
0.344885
0.360538
0.373864
0.385717
0.396561
0.406661
0.416171
0.425179
0.433728
0.44183
0.449464
0.456579
0.463094
0.468887
0.473792
0.4776
0.480119
0.481214
0.480795
0.478805
0.475211
0.470004
0.463161
0.454587
0.444127
0.431603
0.416821
0.401201
0.386497
0.372782
0.36005
0.348254
0.337317
0.32715
0.317662
0.30876
0.300361
0.292391
0.284787
0.277496
0.27047
0.263669
0.257051
0.250576
0.244199
0.23787
0.231523
0.225072
0.218385
0.211252
0.203304
0.193867
0.181689
0.164636
0.140309
0.109165
0.075567
0.0433477
0.0139306
0.0372779
0.115713
0.194257
0.257683
0.299356
0.32647
0.34613
0.361784
0.375124
0.386998
0.39787
0.408002
0.417548
0.426597
0.435192
0.443345
0.451034
0.45821
0.464789
0.470649
0.475619
0.479485
0.482048
0.483168
0.482747
0.480722
0.477054
0.471733
0.464731
0.455948
0.445225
0.43238
0.417218
0.401201
0.38613
0.372083
0.359055
0.346995
0.335824
0.325452
0.315781
0.306719
0.298177
0.290081
0.282366
0.274976
0.267866
0.260993
0.254316
0.247794
0.241384
0.235033
0.228678
0.222232
0.215564
0.208463
0.200562
0.191183
0.179066
0.162068
0.137849
0.107025
0.0739785
0.0423986
0.0136154
0.037501
0.116437
0.19541
0.259001
0.300649
0.32773
0.34737
0.363026
0.376378
0.388274
0.399174
0.40934
0.418925
0.428017
0.436662
0.44487
0.452621
0.459864
0.466514
0.472448
0.477491
0.481424
0.48404
0.485192
0.484775
0.482718
0.478978
0.473541
0.466376
0.457377
0.446381
0.433202
0.417643
0.401211
0.385759
0.371366
0.358029
0.345694
0.334281
0.323695
0.313835
0.304605
0.295915
0.287687
0.279855
0.272364
0.265165
0.258216
0.251477
0.244907
0.23846
0.232087
0.225723
0.219281
0.212632
0.205565
0.197713
0.188395
0.176342
0.159403
0.135299
0.104813
0.0723377
0.0414179
0.0132894
0.0377269
0.117178
0.196575
0.260316
0.301955
0.328986
0.348614
0.364266
0.377631
0.389548
0.400476
0.410676
0.420302
0.429441
0.438139
0.446407
0.454224
0.461541
0.46827
0.474286
0.479411
0.48342
0.486098
0.48729
0.486883
0.484797
0.480987
0.475432
0.468098
0.458876
0.447597
0.434071
0.418099
0.401234
0.385383
0.37063
0.356971
0.344351
0.332685
0.321876
0.311819
0.302414
0.29357
0.285205
0.277252
0.269653
0.262361
0.255334
0.248529
0.241907
0.235423
0.229025
0.222651
0.216213
0.209584
0.202553
0.194753
0.1855
0.173515
0.15664
0.132658
0.102527
0.070644
0.0404052
0.0129524
0.0379626
0.117873
0.197746
0.261662
0.303231
0.330244
0.349846
0.365504
0.37888
0.390819
0.401777
0.412012
0.42168
0.43087
0.439625
0.447957
0.455847
0.463244
0.470059
0.476166
0.481382
0.485476
0.488227
0.489467
0.489074
0.486965
0.483084
0.47741
0.469904
0.460451
0.448876
0.434988
0.418585
0.401268
0.385001
0.369873
0.355879
0.342961
0.331032
0.319991
0.30973
0.300144
0.291139
0.282631
0.274551
0.266841
0.259452
0.252341
0.245467
0.23879
0.232265
0.225842
0.219457
0.213023
0.206415
0.199422
0.191676
0.182492
0.170582
0.153775
0.129925
0.100168
0.0688968
0.0393598
0.012604
0.0381489
0.118652
0.198855
0.262903
0.304526
0.331464
0.351064
0.36672
0.380115
0.392079
0.403069
0.413345
0.42306
0.432304
0.441122
0.449525
0.457494
0.464977
0.471887
0.478092
0.483409
0.487599
0.49043
0.491726
0.491355
0.489225
0.485276
0.47948
0.471797
0.462104
0.450223
0.435957
0.419103
0.401314
0.384614
0.369094
0.35475
0.341522
0.329321
0.318038
0.307564
0.29779
0.288618
0.279961
0.271749
0.263922
0.25643
0.249232
0.242285
0.23555
0.228982
0.222531
0.216133
0.209704
0.203117
0.196164
0.188477
0.179369
0.16754
0.15081
0.127102
0.0977357
0.0670974
0.0382825
0.0122444
0.0384315
0.118324
0.200052
0.264643
0.305778
0.332687
0.352247
0.367912
0.381324
0.393319
0.404348
0.414671
0.424439
0.433744
0.442631
0.451111
0.459166
0.466744
0.473755
0.480068
0.485495
0.48979
0.492711
0.494072
0.493731
0.491584
0.487567
0.481648
0.473781
0.46384
0.451639
0.436979
0.419654
0.401373
0.384219
0.368291
0.353582
0.340032
0.327546
0.316013
0.305317
0.295348
0.286002
0.27719
0.26884
0.260891
0.253293
0.246002
0.238978
0.232181
0.225566
0.219085
0.212673
0.206248
0.199683
0.192773
0.185151
0.176126
0.164389
0.147745
0.124193
0.0952351
0.0652484
0.0371746
0.0118741
0.0386536
0.118966
0.201212
0.265956
0.307008
0.333878
0.353414
0.369085
0.382517
0.394546
0.405618
0.415991
0.425818
0.43519
0.444151
0.452715
0.460863
0.468543
0.475664
0.482094
0.487641
0.492051
0.495074
0.496509
0.496204
0.494046
0.489962
0.483918
0.475862
0.465662
0.453129
0.438057
0.42024
0.401443
0.383816
0.367461
0.352373
0.338487
0.325705
0.313911
0.302986
0.292813
0.283286
0.274314
0.26582
0.257744
0.250033
0.242645
0.23554
0.228676
0.222011
0.215496
0.209069
0.202647
0.196106
0.189242
0.181691
0.172759
0.161126
0.144584
0.121202
0.0926711
0.0633537
0.0360383
0.0114936
0.0388656
0.119639
0.202353
0.267237
0.308238
0.335058
0.354574
0.370249
0.383704
0.395767
0.406884
0.417311
0.427201
0.436644
0.445686
0.45434
0.462587
0.470376
0.477617
0.484173
0.489849
0.494387
0.497523
0.499042
0.498779
0.496615
0.492466
0.486294
0.478043
0.467575
0.454694
0.439192
0.420861
0.401525
0.383403
0.366603
0.351119
0.336883
0.323793
0.311728
0.300565
0.290181
0.280467
0.271327
0.262684
0.254475
0.246647
0.239157
0.231964
0.225029
0.21831
0.211757
0.205311
0.19889
0.192374
0.18556
0.178087
0.169262
0.157755
0.14134
0.11815
0.0900626
0.0614276
0.034882
0.0111057
0.0390748
0.120313
0.203491
0.26851
0.309454
0.336226
0.35572
0.371402
0.384881
0.396982
0.408147
0.418633
0.42859
0.43811
0.447238
0.455989
0.464343
0.472249
0.479617
0.486309
0.492126
0.496802
0.500061
0.501674
0.501463
0.499296
0.495084
0.488782
0.48033
0.469583
0.45634
0.440387
0.421517
0.401618
0.382979
0.365714
0.349816
0.335216
0.321805
0.309459
0.298048
0.287446
0.277537
0.268224
0.259426
0.251078
0.243127
0.23553
0.228245
0.221234
0.214454
0.207859
0.201389
0.194967
0.188473
0.18171
0.174323
0.165624
0.154273
0.138029
0.115068
0.0874401
0.0594934
0.03372
0.0107153
0.039279
0.120985
0.204617
0.269765
0.310656
0.337371
0.356851
0.372541
0.386049
0.398192
0.409412
0.41996
0.429991
0.439592
0.448813
0.457666
0.466135
0.474166
0.48167
0.488506
0.494474
0.4993
0.502694
0.504412
0.504261
0.502097
0.497823
0.491388
0.482728
0.471691
0.458069
0.441645
0.422211
0.401721
0.382541
0.36479
0.348461
0.333481
0.319737
0.307098
0.29543
0.284601
0.274491
0.264999
0.25604
0.247548
0.239469
0.231759
0.224377
0.217284
0.210438
0.203795
0.197296
0.190865
0.184389
0.177676
0.17038
0.161823
0.150672
0.134673
0.112005
0.0848485
0.0575824
0.0325699