/*--------------------------------*- C++ -*----------------------------------*\
| =========                 |                                                 |
| \\      /  F ield         | OpenFOAM: The Open Source CFD Toolbox           |
|  \\    /   O peration     | Version:  2412                                  |
|   \\  /    A nd           | Website:  www.openfoam.com                      |
|    \\/     M anipulation  |                                                 |
\*---------------------------------------------------------------------------*/
FoamFile
{
    version     2.0;
    format      ascii;
    arch        "LSB;label=32;scalar=64";
    class       volScalarField;
    location    "2000";
    object      Uy;
}
// * * * * * * * * * * * * * * * * * * * * * * * * * * * * * * * * * * * * * //

dimensions      [0 1 -1 0 0 0 0];

internalField   nonuniform List<scalar> 
32240
(
-8.07326e-07
-5.64496e-06
-1.53447e-05
-2.91634e-05
-4.46799e-05
-6.08436e-05
-7.81325e-05
-9.708e-05
-0.000118076
-0.000141432
-0.000167495
-0.000196589
-0.000229076
-0.000265307
-0.000305644
-0.000350443
-0.000400047
-0.000454729
-0.000514684
-0.000579971
-0.000650467
-0.000725722
-0.000804949
-0.000886861
-0.000969283
-0.0010495
-0.00112492
-0.00119362
-0.0012533
-0.00130125
-0.00133357
-0.00134493
-0.00132793
-0.00128001
-0.00121311
-0.00113478
-0.00105048
-0.000964209
-0.000878803
-0.00079621
-0.000717693
-0.00064403
-0.000575612
-0.000512584
-0.000454892
-0.000402367
-0.000354747
-0.000311736
-0.000273009
-0.000238225
-0.000207051
-0.000179158
-0.00015424
-0.000131994
-0.000112149
-9.44333e-05
-7.86223e-05
-6.44611e-05
-5.17156e-05
-4.00244e-05
-2.89916e-05
-1.86616e-05
-1.00172e-05
-3.90335e-06
-6.55277e-07
1.04015e-07
-2.72518e-06
-1.10242e-05
-2.49745e-05
-4.23255e-05
-6.15399e-05
-8.28598e-05
-0.00010682
-0.000133795
-0.000164093
-0.000198042
-0.000235976
-0.00027824
-0.000325151
-0.000377005
-0.000434044
-0.000496448
-0.000564259
-0.000637369
-0.000715447
-0.000797877
-0.000883654
-0.000971321
-0.00105911
-0.00114427
-0.00122404
-0.00129638
-0.00135995
-0.00141322
-0.00145406
-0.00147947
-0.00148499
-0.00146488
-0.00141671
-0.00135041
-0.00127195
-0.00118606
-0.00109648
-0.00100607
-0.000916955
-0.000830682
-0.000748336
-0.000670617
-0.000597947
-0.000530517
-0.000468365
-0.000411403
-0.00035946
-0.000312308
-0.000269682
-0.000231301
-0.000196868
-0.000166095
-0.000138695
-0.000114401
-9.29571e-05
-7.41413e-05
-5.77314e-05
-4.35038e-05
-3.11309e-05
-2.03009e-05
-1.11966e-05
-4.64272e-06
-1.09133e-06
1.69667e-07
-3.29795e-07
-3.65809e-06
-1.18783e-05
-2.476e-05
-4.0117e-05
-5.67262e-05
-7.49341e-05
-9.52814e-05
-0.000118148
-0.000143848
-0.000172706
-0.000205051
-0.000241225
-0.00028157
-0.00032643
-0.000376116
-0.000430901
-0.000490986
-0.000556462
-0.00062724
-0.000702982
-0.000783009
-0.000866189
-0.000951025
-0.00103511
-0.00111588
-0.00119144
-0.0012601
-0.00131981
-0.00136784
-0.00140054
-0.0014125
-0.00139668
-0.00134961
-0.00128242
-0.0012025
-0.00111543
-0.00102541
-0.00093547
-0.000847814
-0.000763912
-0.000684722
-0.000610782
-0.000542349
-0.000479462
-0.000422016
-0.000369803
-0.000322557
-0.000279975
-0.000241735
-0.000207511
-0.00017698
-0.000149833
-0.00012577
-0.000104517
-8.58112e-05
-6.9418e-05
-5.50958e-05
-4.25837e-05
-3.15121e-05
-2.15141e-05
-1.27473e-05
-6.0637e-06
-2.00533e-06
-2.28979e-07
-1.82949e-07
-3.68071e-06
-1.24348e-05
-2.63054e-05
-4.29847e-05
-6.11614e-05
-8.11787e-05
-0.000103555
-0.000128642
-0.000156737
-0.000188155
-0.000223221
-0.000262276
-0.000305649
-0.000353661
-0.0004066
-0.000464705
-0.000528125
-0.000596881
-0.000670814
-0.000749504
-0.000832164
-0.000917553
-0.00100404
-0.00108919
-0.00117051
-0.00124632
-0.00131506
-0.00137474
-0.0014227
-0.00145546
-0.0014678
-0.00145308
-0.00140778
-0.00134234
-0.0012637
-0.00117723
-0.00108704
-0.000996184
-0.000906914
-0.000820795
-0.000738891
-0.00066186
-0.000590065
-0.000523642
-0.000462575
-0.000406729
-0.000355898
-0.000309819
-0.000268209
-0.000230766
-0.000197183
-0.00016716
-0.000140407
-0.000116651
-9.56341e-05
-7.71287e-05
-6.09068e-05
-4.67272e-05
-3.42477e-05
-2.3108e-05
-1.34838e-05
-6.25053e-06
-1.93473e-06
-8.16647e-08
-2.46576e-07
-3.71561e-06
-1.2445e-05
-2.6207e-05
-4.26666e-05
-6.0523e-05
-8.01321e-05
-0.000102037
-0.000126611
-0.000154173
-0.000185049
-0.000219576
-0.000258102
-0.00030097
-0.000348517
-0.000401049
-0.000458823
-0.000522019
-0.000590699
-0.000664743
-0.000743775
-0.000827063
-0.000913423
-0.00100119
-0.00108796
-0.00117128
-0.00124958
-0.00132122
-0.00138411
-0.00143543
-0.00147147
-0.00148665
-0.00147388
-0.00142904
-0.00136288
-0.00128277
-0.00119441
-0.00110213
-0.00100917
-0.000917873
-0.000829874
-0.000746271
-0.000667734
-0.000594628
-0.000527082
-0.000465066
-0.000408431
-0.000356955
-0.000310364
-0.000268359
-0.000230624
-0.000196844
-0.000166709
-0.00013992
-0.000116196
-9.52667e-05
-7.68883e-05
-6.08128e-05
-4.67699e-05
-3.43814e-05
-2.32666e-05
-1.36164e-05
-6.34579e-06
-2.0058e-06
-1.41341e-07
-2.17828e-07
-3.82433e-06
-1.28075e-05
-2.69972e-05
-4.396e-05
-6.23766e-05
-8.26217e-05
-0.000105239
-0.000130597
-0.000159013
-0.000190813
-0.000226336
-0.000265934
-0.000309953
-0.00035873
-0.000412572
-0.000471741
-0.000536413
-0.000606644
-0.000682315
-0.000763052
-0.000848123
-0.000936369
-0.00102606
-0.00111481
-0.00120024
-0.00128082
-0.00135494
-0.00142044
-0.00147441
-0.00151301
-0.00153052
-0.00151964
-0.00147588
-0.00140992
-0.00132926
-0.00123975
-0.00114583
-0.00105086
-0.000957279
-0.000866809
-0.000780621
-0.000699447
-0.000623701
-0.000553553
-0.000489007
-0.000429937
-0.000376142
-0.000327359
-0.0002833
-0.000243652
-0.000208102
-0.000176336
-0.000148053
-0.000122964
-0.000100796
-8.13025e-05
-6.42351e-05
-4.93218e-05
-3.61798e-05
-2.44143e-05
-1.42407e-05
-6.61211e-06
-2.07044e-06
-1.22246e-07
-2.39328e-07
-3.9149e-06
-1.31387e-05
-2.76654e-05
-4.4987e-05
-6.37546e-05
-8.43529e-05
-0.000107338
-0.000133091
-0.000161938
-0.000194216
-0.000230275
-0.000270474
-0.00031517
-0.00036471
-0.00041941
-0.000479538
-0.00054528
-0.000616703
-0.000693693
-0.000775887
-0.000862573
-0.000952643
-0.00104433
-0.00113527
-0.00122316
-0.0013065
-0.00138367
-0.00145239
-0.00150963
-0.00155136
-0.00157159
-0.00156269
-0.00151964
-0.00145326
-0.00137135
-0.00127998
-0.00118381
-0.00108634
-0.000990134
-0.000896998
-0.000808166
-0.000724418
-0.0006462
-0.000573705
-0.00050695
-0.000445818
-0.000390112
-0.000339572
-0.000293906
-0.000252799
-0.000215931
-0.000182983
-0.000153643
-0.000127618
-0.000104627
-8.44124e-05
-6.67169e-05
-5.12499e-05
-3.76067e-05
-2.53774e-05
-1.47978e-05
-6.869e-06
-2.1583e-06
-1.33381e-07
-2.42025e-07
-3.99406e-06
-1.34766e-05
-2.84023e-05
-4.61745e-05
-6.54113e-05
-8.65093e-05
-0.000110037
-0.000136381
-0.000165877
-0.000198869
-0.000235717
-0.000276789
-0.000322451
-0.000373055
-0.000428926
-0.000490338
-0.000557481
-0.000630421
-0.000709049
-0.000793
-0.00088157
-0.000973704
-0.00106758
-0.00116087
-0.00125139
-0.00133766
-0.00141803
-0.00149013
-0.00155079
-0.0015958
-0.0016189
-0.00161216
-0.00157005
-0.00150346
-0.00142044
-0.0013273
-0.00122887
-0.00112883
-0.00102984
-0.000933816
-0.000842067
-0.000755429
-0.000674389
-0.000599172
-0.000529818
-0.000466229
-0.000408215
-0.000355525
-0.000307866
-0.000264924
-0.000226377
-0.0001919
-0.000161177
-0.000133906
-0.000109799
-8.85905e-05
-7.00169e-05
-5.37778e-05
-3.94536e-05
-2.66188e-05
-1.55212e-05
-7.20262e-06
-2.25841e-06
-1.35606e-07
-2.2223e-07
-4.10296e-06
-1.38058e-05
-2.9106e-05
-4.72818e-05
-6.69321e-05
-8.84741e-05
-0.000112487
-0.000139366
-0.000169455
-0.000203109
-0.000240696
-0.000282595
-0.000329179
-0.000380813
-0.000437828
-0.000500506
-0.000569046
-0.000643519
-0.000723823
-0.000809592
-0.000900126
-0.000994419
-0.00109061
-0.0011864
-0.00127976
-0.0013692
-0.00145305
-0.00152881
-0.00159315
-0.00164167
-0.00166783
-0.00166336
-0.00162217
-0.00155525
-0.00147095
-0.00137585
-0.00127498
-0.00117217
-0.00107023
-0.000971181
-0.00087639
-0.000786755
-0.000702806
-0.000624798
-0.000552791
-0.0004867
-0.000426347
-0.000371483
-0.000321817
-0.000277033
-0.000236804
-0.0002008
-0.000168698
-0.000140188
-0.000114975
-9.27863e-05
-7.33467e-05
-5.6341e-05
-4.13285e-05
-2.78669e-05
-1.62339e-05
-7.52933e-06
-2.36119e-06
-1.42791e-07
-2.06571e-07
-4.22004e-06
-1.41502e-05
-2.98193e-05
-4.83902e-05
-6.84541e-05
-9.04479e-05
-0.000114961
-0.000142398
-0.000173111
-0.000207462
-0.000245831
-0.000288603
-0.000336162
-0.000388881
-0.000447104
-0.000511123
-0.000581147
-0.00065726
-0.000739363
-0.000827088
-0.000919731
-0.00101632
-0.00111495
-0.00121338
-0.00130976
-0.00140259
-0.00149013
-0.00156978
-0.00163804
-0.0016903
-0.00171973
-0.00171771
-0.00167756
-0.00161036
-0.00152478
-0.00142764
-0.00132423
-0.00121853
-0.00111349
-0.00101123
-0.000913214
-0.000820396
-0.00073335
-0.000652364
-0.000577522
-0.000508756
-0.000445896
-0.000388698
-0.000336874
-0.000290106
-0.000248063
-0.00021041
-0.000176816
-0.000146965
-0.000120554
-9.72995e-05
-7.69197e-05
-5.90857e-05
-4.33375e-05
-2.92161e-05
-1.70179e-05
-7.89262e-06
-2.47457e-06
-1.49651e-07
-2.30507e-07
-4.2741e-06
-1.44477e-05
-3.044e-05
-4.93809e-05
-6.98389e-05
-9.22655e-05
-0.000117263
-0.000145244
-0.000176567
-0.000211605
-0.000250742
-0.000294375
-0.000342896
-0.00039669
-0.000456115
-0.000521475
-0.000592997
-0.000670782
-0.000754741
-0.000844515
-0.000939391
-0.0010384
-0.00113963
-0.00124089
-0.0013405
-0.00143696
-0.00152845
-0.00161222
-0.00168463
-0.00174086
-0.00177376
-0.00177433
-0.00173529
-0.0016678
-0.00158088
-0.00148164
-0.00137557
-0.00126685
-0.00115858
-0.00105299
-0.000951615
-0.000855483
-0.000765212
-0.000681126
-0.000603332
-0.000531778
-0.000466307
-0.000406679
-0.000352608
-0.000303775
-0.000259844
-0.000220474
-0.000185329
-0.000154081
-0.000126421
-0.000102056
-8.0694e-05
-6.19908e-05
-4.54642e-05
-3.06381e-05
-1.7837e-05
-8.27009e-06
-2.59424e-06
-1.55246e-07
-2.51598e-07
-4.34891e-06
-1.47854e-05
-3.11464e-05
-5.04969e-05
-7.13776e-05
-9.42587e-05
-0.000119758
-0.000148298
-0.000180246
-0.00021598
-0.000255896
-0.000300396
-0.000349885
-0.000404758
-0.000465385
-0.000532089
-0.000605114
-0.000684582
-0.000770427
-0.000862302
-0.000959501
-0.00106104
-0.00116501
-0.00126928
-0.00137234
-0.00147264
-0.0015683
-0.00165643
-0.00173326
-0.00179369
-0.00183029
-0.00183363
-0.0017958
-0.00172805
-0.00163976
-0.00153832
-0.00142948
-0.0013176
-0.00120595
-0.00109686
-0.000991965
-0.000892356
-0.000798701
-0.00071136
-0.000630464
-0.000555981
-0.000487763
-0.000425577
-0.000369139
-0.000318128
-0.000272204
-0.00023102
-0.000194233
-0.000161506
-0.000132523
-0.000106981
-8.4579e-05
-6.49591e-05
-4.76174e-05
-3.20564e-05
-1.8641e-05
-8.64365e-06
-2.71584e-06
-1.64422e-07
-2.19741e-07
-4.48612e-06
-1.51278e-05
-3.18599e-05
-5.16029e-05
-7.28993e-05
-9.62479e-05
-0.000122273
-0.000151399
-0.000183997
-0.000220451
-0.000261164
-0.000306545
-0.00035701
-0.000412962
-0.000474787
-0.000542824
-0.000617341
-0.000698484
-0.000786219
-0.000880226
-0.000979826
-0.00108401
-0.0011909
-0.0012984
-0.00140513
-0.0015095
-0.00160957
-0.00170232
-0.00178379
-0.00184866
-0.00188916
-0.00189545
-0.00185892
-0.00179093
-0.00170123
-0.00159752
-0.00148581
-0.00137066
-0.00125549
-0.00114276
-0.00103421
-0.00093098
-0.000833801
-0.000743067
-0.000658938
-0.000581398
-0.000510312
-0.000445453
-0.00038654
-0.00033325
-0.000285239
-0.000242156
-0.000203647
-0.000169371
-0.000139
-0.000112224
-8.87318e-05
-6.81488e-05
-4.99469e-05
-3.36114e-05
-1.95367e-05
-9.05754e-06
-2.84538e-06
-1.72603e-07
-1.92519e-07
-4.62581e-06
-1.55163e-05
-3.26585e-05
-5.28383e-05
-7.45975e-05
-9.84585e-05
-0.00012505
-0.000154798
-0.000188079
-0.000225282
-0.000266815
-0.000313095
-0.000364546
-0.000421583
-0.000484604
-0.000553968
-0.000629965
-0.000712772
-0.000802388
-0.000898535
-0.00100058
-0.0011075
-0.00121745
-0.00132838
-0.00143897
-0.00154764
-0.00165237
-0.00174998
-0.00183638
-0.00190595
-0.00195058
-0.00196001
-0.0019249
-0.00185671
-0.00176556
-0.00165949
-0.00154478
-0.00142621
-0.00130737
-0.00119084
-0.00107845
-0.00097144
-0.000870575
-0.000776293
-0.000688782
-0.000608046
-0.000533961
-0.000466307
-0.000404804
-0.000349128
-0.000298934
-0.000253861
-0.00021355
-0.00017765
-0.000145826
-0.000117757
-9.31214e-05
-7.15291e-05
-5.24251e-05
-3.52784e-05
-2.05077e-05
-9.50744e-06
-2.98484e-06
-1.82819e-07
-2.28649e-07
-4.64366e-06
-1.58241e-05
-3.33405e-05
-5.39662e-05
-7.62032e-05
-0.000100582
-0.000127744
-0.000158118
-0.000192086
-0.00023004
-0.000272395
-0.000319575
-0.000372014
-0.000430138
-0.000494362
-0.000565063
-0.000642559
-0.000727057
-0.000818595
-0.000916936
-0.00102152
-0.0011313
-0.00124446
-0.00135903
-0.00147374
-0.00158696
-0.00169661
-0.00179938
-0.00189097
-0.00196552
-0.00201455
-0.00202732
-0.00199374
-0.00192537
-0.00183273
-0.00172423
-0.00160641
-0.00148429
-0.00136162
-0.00124113
-0.00112475
-0.00101379
-0.000909081
-0.000811097
-0.000720055
-0.00063598
-0.00055876
-0.000488183
-0.000423972
-0.000365801
-0.00031332
-0.000266163
-0.000223964
-0.000186361
-0.000153009
-0.000123581
-9.77412e-05
-7.50818e-05
-5.50214e-05
-3.70081e-05
-2.15011e-05
-9.96709e-06
-3.13152e-06
-1.87802e-07
-2.56929e-07
-4.75333e-06
-1.62637e-05
-3.4232e-05
-5.53433e-05
-7.80699e-05
-0.000102962
-0.000130676
-0.000161651
-0.000196276
-0.000234951
-0.000278098
-0.000326153
-0.000379559
-0.000438757
-0.00050418
-0.000576229
-0.000655246
-0.000741472
-0.000834979
-0.000935577
-0.00104278
-0.00115553
-0.00127204
-0.00139045
-0.00150949
-0.00162753
-0.00174239
-0.00185062
-0.00194773
-0.00202756
-0.00208125
-0.00209759
-0.00206566
-0.00199714
-0.00190298
-0.00179194
-0.00167087
-0.00154503
-0.00141836
-0.00129372
-0.00117317
-0.00105808
-0.000949342
-0.00084748
-0.000752739
-0.000665166
-0.000584661
-0.000511022
-0.000443971
-0.000383184
-0.000328304
-0.000278961
-0.000234779
-0.000195389
-0.000160435
-0.00012958
-0.000102478
-7.87041e-05
-5.76471e-05
-3.87358e-05
-2.248e-05
-1.0421e-05
-3.27711e-06
-2.01965e-07
-2.61469e-07
-5.04905e-06
-1.69208e-05
-3.53891e-05
-5.69676e-05
-8.01511e-05
-0.000105525
-0.000133755
-0.000165289
-0.000200525
-0.000239876
-0.000283772
-0.000332664
-0.00038701
-0.000447269
-0.000513894
-0.000587311
-0.000667889
-0.0007559
-0.00085145
-0.000954388
-0.00106432
-0.00118016
-0.00130018
-0.00142262
-0.00154625
-0.00166939
-0.00178978
-0.00190378
-0.00200673
-0.00209215
-0.00215079
-0.00217092
-0.00214077
-0.00207212
-0.00197639
-0.00186273
-0.00173829
-0.00160858
-0.00147774
-0.00134879
-0.00122388
-0.00110448
-0.000991548
-0.00088564
-0.000787039
-0.000695814
-0.000611878
-0.000535036
-0.000465016
-0.00040149
-0.000344098
-0.000292463
-0.000246201
-0.000204934
-0.000168298
-0.000135945
-0.000107517
-8.25704e-05
-6.0465e-05
-4.06088e-05
-2.35554e-05
-1.09201e-05
-3.43459e-06
-2.11356e-07
-3.10102e-07
-5.25489e-06
-1.75505e-05
-3.6539e-05
-5.864e-05
-8.2323e-05
-0.000108196
-0.00013694
-0.000169017
-0.00020484
-0.000244836
-0.000289454
-0.000339162
-0.000394435
-0.000455756
-0.000523598
-0.000598411
-0.000680592
-0.000770445
-0.000868104
-0.000973464
-0.00108621
-0.00120526
-0.00132893
-0.00145563
-0.0015841
-0.00171264
-0.00183888
-0.001959
-0.00206813
-0.00215946
-0.00222334
-0.0022475
-0.00221927
-0.00215053
-0.00205319
-0.0019368
-0.00180884
-0.0016751
-0.00153991
-0.00140645
-0.00127699
-0.00115309
-0.00103577
-0.000925632
-0.000822999
-0.000727957
-0.000640437
-0.00056025
-0.000487125
-0.000420736
-0.000360718
-0.000306685
-0.000258247
-0.000215015
-0.000176617
-0.000142693
-0.000112876
-8.66988e-05
-6.349e-05
-4.26436e-05
-2.47422e-05
-1.14697e-05
-3.60393e-06
-2.24284e-07
-3.21439e-07
-5.31506e-06
-1.79153e-05
-3.73538e-05
-5.99395e-05
-8.40994e-05
-0.000110456
-0.000139705
-0.000172322
-0.000208732
-0.000249378
-0.000294728
-0.000345268
-0.000401494
-0.000463907
-0.000533007
-0.000609269
-0.00069312
-0.000784893
-0.000884759
-0.000992653
-0.00110835
-0.00123076
-0.00135829
-0.00148948
-0.00162308
-0.00175735
-0.00188977
-0.00201636
-0.00213201
-0.0022296
-0.00229904
-0.00232748
-0.00230131
-0.00223252
-0.00213352
-0.00201429
-0.00188268
-0.00174472
-0.00160499
-0.00146682
-0.00133261
-0.00120402
-0.00108211
-0.000967564
-0.000860719
-0.000761692
-0.000670426
-0.000586743
-0.000510376
-0.000440993
-0.000378228
-0.000321687
-0.00027097
-0.000225681
-0.000185434
-0.000149862
-0.00011858
-9.11048e-05
-6.67267e-05
-4.48196e-05
-2.601e-05
-1.20604e-05
-3.78627e-06
-2.32125e-07
-2.34132e-07
-5.35292e-06
-1.80908e-05
-3.78854e-05
-6.0862e-05
-8.54203e-05
-0.000112215
-0.000141946
-0.000175098
-0.000212106
-0.00025343
-0.000299549
-0.000350962
-0.000408185
-0.00047174
-0.00054215
-0.000619917
-0.000705503
-0.000799279
-0.000901456
-0.00101201
-0.0011308
-0.00125675
-0.00138833
-0.00152428
-0.00166332
-0.00180364
-0.0019426
-0.00207602
-0.00219857
-0.00230279
-0.00237811
-0.00241111
-0.00238713
-0.00231831
-0.00221758
-0.00209538
-0.00195992
-0.00181755
-0.00167304
-0.00152993
-0.00139072
-0.00125719
-0.00113047
-0.00101128
-0.000900011
-0.000796794
-0.000701592
-0.000614234
-0.000534456
-0.000461928
-0.000396276
-0.000337101
-0.000283992
-0.000236543
-0.000194359
-0.000157059
-0.000124248
-9.54136e-05
-6.98153e-05
-4.68044e-05
-2.70972e-05
-1.25598e-05
-3.9545e-06
-2.46571e-07
-1.33305e-07
-5.44427e-06
-1.82621e-05
-3.83709e-05
-6.1636e-05
-8.64926e-05
-0.000113635
-0.000143781
-0.000177426
-0.000215015
-0.000257016
-0.00030392
-0.000356239
-0.0004145
-0.000479242
-0.00055101
-0.00063034
-0.000717729
-0.000813594
-0.000918189
-0.00103155
-0.00115357
-0.00128326
-0.00141914
-0.00156012
-0.00170492
-0.00185164
-0.00199751
-0.00213817
-0.00226802
-0.00237926
-0.00246082
-0.00249865
-0.00247704
-0.00240821
-0.00230569
-0.00218039
-0.00204091
-0.00189391
-0.0017444
-0.00159611
-0.00145168
-0.00131297
-0.00118121
-0.00105717
-0.000941265
-0.000833661
-0.000734336
-0.000643129
-0.000559778
-0.000483952
-0.000415272
-0.000353332
-0.000297713
-0.000247997
-0.000203779
-0.000164669
-0.000130259
-0.000100018
-7.3166e-05
-4.9036e-05
-2.83875e-05
-1.31589e-05
-4.14554e-06
-2.57431e-07
-3.91353e-08
-5.743e-06
-1.87993e-05
-3.9263e-05
-6.29028e-05
-8.80668e-05
-0.000115533
-0.000146043
-0.000180118
-0.00021822
-0.000260837
-0.000308475
-0.000361658
-0.000420926
-0.000486837
-0.000559959
-0.000640857
-0.000730069
-0.000828059
-0.00093514
-0.0010514
-0.00117682
-0.00131043
-0.00145086
-0.00159717
-0.00174805
-0.00190155
-0.00205474
-0.00220304
-0.00234063
-0.00245929
-0.00254746
-0.00259042
-0.00257132
-0.00250251
-0.00239813
-0.00226957
-0.00212588
-0.00197402
-0.00181928
-0.00166555
-0.00151565
-0.00137153
-0.00123449
-0.00110536
-0.000984596
-0.000872397
-0.000768753
-0.000673512
-0.000586416
-0.000507132
-0.000435276
-0.000370434
-0.000312177
-0.000260077
-0.000213719
-0.000172701
-0.000136601
-0.000104863
-7.66668e-05
-5.13241e-05
-2.96752e-05
-1.37548e-05
-4.3397e-06
-2.70333e-07
6.09516e-07
-6.56998e-06
-1.8894e-05
-4.0173e-05
-6.45387e-05
-9.01474e-05
-0.000118037
-0.000149022
-0.000183608
-0.000222274
-0.000265526
-0.00031389
-0.000367908
-0.000428144
-0.000495175
-0.0005696
-0.000652017
-0.000743014
-0.000843112
-0.00095269
-0.00107192
-0.00120083
-0.00133855
-0.00148377
-0.00163569
-0.00179299
-0.00195363
-0.00211452
-0.00227088
-0.00241662
-0.00254312
-0.00263827
-0.00268666
-0.00267023
-0.00260146
-0.00249512
-0.00236317
-0.00221506
-0.00205811
-0.00189787
-0.00173845
-0.00158281
-0.00143301
-0.00129044
-0.00115598
-0.00103014
-0.000913133
-0.000804969
-0.000705509
-0.000614497
-0.000531597
-0.000456422
-0.000388546
-0.000327532
-0.000272939
-0.000224342
-0.000181326
-0.000143455
-0.000110145
-8.05327e-05
-5.39181e-05
-3.11878e-05
-1.44573e-05
-4.55435e-06
-2.86002e-07
3.43856e-06
-1.05363e-05
-2.00712e-05
-4.22213e-05
-6.65855e-05
-9.2205e-05
-0.000120537
-0.000152101
-0.000187329
-0.000226695
-0.00027069
-0.000319858
-0.000374752
-0.000435964
-0.000504098
-0.000579793
-0.000663693
-0.000756446
-0.00085864
-0.000970734
-0.00109301
-0.00122554
-0.00136755
-0.00151783
-0.00167567
-0.00183973
-0.0020079
-0.00217692
-0.00234179
-0.00249614
-0.00263092
-0.00273347
-0.0027876
-0.00277401
-0.0027053
-0.00259693
-0.0024614
-0.00230864
-0.00214633
-0.00198032
-0.00181491
-0.00165323
-0.00149745
-0.00134907
-0.00120901
-0.00107782
-0.000955747
-0.000842828
-0.000738925
-0.000643788
-0.000557079
-0.000478403
-0.000407329
-0.000343406
-0.000286184
-0.000235223
-0.000190102
-0.000150364
-0.000115398
-8.42983e-05
-5.63357e-05
-3.25161e-05
-1.50726e-05
-4.76435e-06
-2.97876e-07
2.66495e-06
-1.0138e-05
-2.11156e-05
-4.31483e-05
-6.77722e-05
-9.39153e-05
-0.000122849
-0.000155035
-0.000190938
-0.000231026
-0.000275792
-0.000325784
-0.000381569
-0.000443762
-0.000513
-0.000589964
-0.000675355
-0.000769884
-0.000874215
-0.000988898
-0.00111433
-0.00125066
-0.00139719
-0.00155283
-0.00171694
-0.00188815
-0.00206428
-0.0022419
-0.00241578
-0.00257925
-0.00272282
-0.00283322
-0.00289347
-0.00288291
-0.00281432
-0.00270382
-0.00256456
-0.00240693
-0.00223901
-0.00206693
-0.00189524
-0.00172723
-0.00156519
-0.00141071
-0.00126477
-0.00112798
-0.00100061
-0.000882703
-0.000774144
-0.000674684
-0.000583981
-0.000501634
-0.000427204
-0.000360229
-0.000300245
-0.000246804
-0.000199469
-0.000157772
-0.000121074
-8.84194e-05
-5.90695e-05
-3.40913e-05
-1.58029e-05
-4.99673e-06
-3.12892e-07
-1.25873e-07
-6.45194e-06
-2.07177e-05
-4.27966e-05
-6.83252e-05
-9.54377e-05
-0.000124974
-0.000157703
-0.000194169
-0.000234858
-0.00028029
-0.00033102
-0.000387641
-0.000450784
-0.000521123
-0.00059938
-0.00068631
-0.000782688
-0.000889258
-0.00100666
-0.00113544
-0.00127579
-0.00142712
-0.00158848
-0.00175926
-0.00193807
-0.00212267
-0.00230944
-0.0024929
-0.00266608
-0.002819
-0.00293775
-0.00300452
-0.00299724
-0.00292879
-0.0028161
-0.00267292
-0.00251018
-0.00233637
-0.00215793
-0.00197964
-0.00180497
-0.00163637
-0.00147548
-0.00132339
-0.00118072
-0.00104778
-0.000924648
-0.000811205
-0.000707207
-0.000612312
-0.000526112
-0.000448157
-0.000377973
-0.000315086
-0.000259032
-0.000209364
-0.000165598
-0.000127062
-9.27499e-05
-6.19032e-05
-3.56944e-05
-1.6549e-05
-5.23737e-06
-3.27717e-07
-1.6418e-07
-6.47815e-06
-2.10501e-05
-4.35783e-05
-6.95239e-05
-9.7061e-05
-0.000127014
-0.000160189
-0.000197141
-0.000238368
-0.00028441
-0.000335835
-0.000393261
-0.000457342
-0.00052879
-0.000608365
-0.00069688
-0.000795178
-0.000904084
-0.00102434
-0.00115662
-0.00130122
-0.00145763
-0.00162504
-0.00180289
-0.00198977
-0.00218335
-0.00237982
-0.00257345
-0.00275692
-0.00291977
-0.0030474
-0.00312112
-0.00311733
-0.00304908
-0.00293409
-0.00278679
-0.00261868
-0.00243866
-0.00225352
-0.00206829
-0.00188663
-0.00171112
-0.00154351
-0.00138493
-0.00123608
-0.0010973
-0.000968676
-0.000850104
-0.000741341
-0.000642045
-0.000551799
-0.000470142
-0.00039659
-0.000330653
-0.000271858
-0.000219744
-0.000173808
-0.000133345
-9.72922e-05
-6.48841e-05
-3.73877e-05
-1.73342e-05
-5.4858e-06
-3.49071e-07
-2.04065e-07
-6.60302e-06
-2.15274e-05
-4.44891e-05
-7.08594e-05
-9.88187e-05
-0.000129202
-0.000162833
-0.000200277
-0.000242047
-0.000288694
-0.000340808
-0.000399029
-0.000464041
-0.000536593
-0.000617493
-0.000707614
-0.000807872
-0.000919179
-0.00104238
-0.00117831
-0.00132733
-0.00148906
-0.00166285
-0.00184816
-0.00204355
-0.00224662
-0.00245336
-0.00265775
-0.00285213
-0.00302551
-0.00316257
-0.00324367
-0.00324359
-0.00317557
-0.00305817
-0.00290656
-0.00273278
-0.00254623
-0.00235404
-0.00216151
-0.00197249
-0.00178971
-0.00161503
-0.00144965
-0.00129431
-0.00114938
-0.00101499
-0.000891026
-0.000777259
-0.000673337
-0.00057884
-0.000493293
-0.0004162
-0.000347058
-0.000285379
-0.000230692
-0.000182475
-0.000139988
-0.000102109
-6.80581e-05
-3.92039e-05
-1.81805e-05
-5.75685e-06
-3.64269e-07
-2.5247e-07
-6.69263e-06
-2.19867e-05
-4.53913e-05
-7.22051e-05
-0.000100588
-0.000131396
-0.000165472
-0.000203391
-0.000245683
-0.000292918
-0.000345705
-0.000404711
-0.000470651
-0.000544315
-0.000626563
-0.000718329
-0.000820608
-0.000934406
-0.00106068
-0.00120041
-0.00135409
-0.00152142
-0.00170193
-0.00189512
-0.00209952
-0.00231264
-0.00253025
-0.00274605
-0.00295201
-0.00313656
-0.00328361
-0.00337255
-0.00337643
-0.00330868
-0.00318875
-0.00303258
-0.00285284
-0.00265941
-0.00245979
-0.00225956
-0.0020628
-0.00187237
-0.00169024
-0.0015177
-0.00135554
-0.00120416
-0.0010637
-0.000934074
-0.000815048
-0.000706269
-0.000607305
-0.000517672
-0.000436858
-0.000364347
-0.000299636
-0.00024224
-0.000191618
-0.000146987
-0.000107165
-7.13653e-05
-4.10772e-05
-1.90505e-05
-6.03691e-06
-3.82653e-07
-2.5687e-07
-6.75729e-06
-2.23474e-05
-4.61809e-05
-7.34308e-05
-0.000102223
-0.000133446
-0.000167959
-0.000206348
-0.000249159
-0.000296979
-0.00035044
-0.000410236
-0.000477116
-0.000551913
-0.00063554
-0.000729002
-0.000833376
-0.000949767
-0.00107925
-0.00122298
-0.00138154
-0.00155479
-0.0017424
-0.00194393
-0.00215786
-0.00238162
-0.00261076
-0.00283865
-0.00305687
-0.00325327
-0.00341095
-0.00350819
-0.00351629
-0.00344883
-0.00332624
-0.00316526
-0.00297923
-0.00277854
-0.00257108
-0.00236275
-0.00215782
-0.00195933
-0.00176937
-0.00158929
-0.00141994
-0.00126177
-0.00111492
-0.000979342
-0.000854784
-0.000740894
-0.000637231
-0.000543297
-0.000458567
-0.000382507
-0.000314603
-0.000254354
-0.000201199
-0.000154317
-0.000112457
-7.48269e-05
-4.30433e-05
-1.99668e-05
-6.33122e-06
-4.00819e-07
-2.37704e-07
-6.88983e-06
-2.27503e-05
-4.70019e-05
-7.46567e-05
-0.000103824
-0.000135431
-0.000170349
-0.000209181
-0.000252487
-0.000300872
-0.000354993
-0.000415568
-0.000483387
-0.000559328
-0.000644362
-0.00073957
-0.000846117
-0.000965214
-0.00109807
-0.00124599
-0.00140972
-0.00158921
-0.00178434
-0.0019947
-0.00221873
-0.00245377
-0.00269511
-0.00293583
-0.00316707
-0.00337605
-0.00354499
-0.00365107
-0.00366365
-0.0035965
-0.00347109
-0.00330503
-0.00311235
-0.00290397
-0.00268823
-0.00247133
-0.00225778
-0.00205078
-0.00185254
-0.00166451
-0.00148758
-0.00132224
-0.00116866
-0.00102679
-0.000896396
-0.000777113
-0.000668491
-0.00057002
-0.000481159
-0.000401358
-0.000330088
-0.000266837
-0.000211024
-0.000161782
-0.000117791
-7.82524e-05
-4.4945e-05
-2.08509e-05
-6.62596e-06
-4.25401e-07
-2.17468e-07
-7.03854e-06
-2.31651e-05
-4.78154e-05
-7.58442e-05
-0.000105356
-0.000137311
-0.000172601
-0.000211842
-0.000255612
-0.000304537
-0.000359296
-0.000420642
-0.000489401
-0.000566502
-0.000652982
-0.000749999
-0.000858814
-0.000980751
-0.00111715
-0.0012695
-0.00143867
-0.00162477
-0.00182787
-0.00204757
-0.0022823
-0.00252929
-0.00278358
-0.0030379
-0.00328297
-0.0035053
-0.00368621
-0.00380168
-0.00381902
-0.00375222
-0.00362385
-0.00345242
-0.00325271
-0.00303623
-0.00281176
-0.00258582
-0.0023632
-0.00214725
-0.0019403
-0.0017439
-0.00155901
-0.00138614
-0.00122549
-0.00107702
-0.000940499
-0.000815556
-0.000701732
-0.0005985
-0.000505303
-0.000421575
-0.000346773
-0.000280367
-0.000221758
-0.00017003
-0.000123785
-8.22337e-05
-4.7258e-05
-2.19324e-05
-6.96413e-06
-4.44222e-07
-2.4274e-07
-7.2689e-06
-2.37497e-05
-4.88237e-05
-7.7216e-05
-0.000107061
-0.000139344
-0.000174977
-0.000214592
-0.00025879
-0.000308219
-0.000363588
-0.000425682
-0.000495374
-0.000573647
-0.000661606
-0.000760493
-0.000871669
-0.000996574
-0.00113669
-0.0012937
-0.0014686
-0.00166168
-0.00187318
-0.00210276
-0.00234882
-0.00260846
-0.00287648
-0.00314524
-0.00340496
-0.00364148
-0.0038351
-0.00396053
-0.00398291
-0.00391648
-0.00378497
-0.00360786
-0.00340071
-0.00317566
-0.00294194
-0.00270647
-0.00247424
-0.00224884
-0.0020327
-0.00182748
-0.00163418
-0.00145336
-0.00128526
-0.00112984
-0.000986861
-0.000855957
-0.000736653
-0.000628409
-0.000530647
-0.000442784
-0.000364258
-0.000294526
-0.000232961
-0.00017859
-0.000129933
-8.62063e-05
-4.9483e-05
-2.29702e-05
-7.30328e-06
-4.67292e-07
-3.00819e-07
-7.42934e-06
-2.43089e-05
-4.98087e-05
-7.85884e-05
-0.000108783
-0.000141403
-0.000177378
-0.000217365
-0.000261983
-0.000311909
-0.000367885
-0.000430735
-0.000501379
-0.000580857
-0.000670346
-0.000771175
-0.000884811
-0.00101282
-0.00115682
-0.0013187
-0.00149963
-0.00170006
-0.00192043
-0.00216046
-0.00241849
-0.00269154
-0.00297412
-0.00325818
-0.00353348
-0.00378504
-0.00399215
-0.00412814
-0.00415588
-0.00408983
-0.00395497
-0.00377184
-0.00355681
-0.00332269
-0.00307921
-0.00283364
-0.00259129
-0.00235589
-0.00213006
-0.00191552
-0.00171336
-0.00152417
-0.00134821
-0.00118545
-0.00103567
-0.000898476
-0.000773395
-0.000659865
-0.00055729
-0.000465065
-0.000382612
-0.000309375
-0.0002447
-0.000187561
-0.000136391
-9.04227e-05
-5.18857e-05
-2.40908e-05
-7.66187e-06
-4.88121e-07
-3.30229e-07
-7.53827e-06
-2.47707e-05
-5.07189e-05
-7.99145e-05
-0.000110467
-0.00014343
-0.000179758
-0.000220125
-0.000265176
-0.000315615
-0.000372219
-0.000435851
-0.000507481
-0.000588209
-0.000679286
-0.000782132
-0.000898321
-0.00102955
-0.00117761
-0.00134459
-0.00153184
-0.00174001
-0.00196975
-0.00222081
-0.00249153
-0.00277879
-0.0030768
-0.00337712
-0.00366893
-0.00393647
-0.00415789
-0.00430507
-0.00433846
-0.00427281
-0.00413439
-0.00394485
-0.00372147
-0.00347773
-0.0032239
-0.00296765
-0.00271456
-0.00246861
-0.00223252
-0.00200813
-0.00179659
-0.00159855
-0.00141429
-0.00124378
-0.00108681
-0.00094299
-0.000811816
-0.000692715
-0.000585067
-0.000488251
-0.000401669
-0.00032475
-0.000256815
-0.000196778
-0.000142974
-9.46591e-05
-5.42617e-05
-2.52039e-05
-8.02777e-06
-5.23069e-07
-2.77002e-07
-7.6608e-06
-2.51088e-05
-5.14595e-05
-8.10212e-05
-0.000111907
-0.000145208
-0.000181892
-0.000222651
-0.000268155
-0.000319136
-0.000376402
-0.000440858
-0.000513521
-0.000595554
-0.000688283
-0.000793221
-0.000912062
-0.00104664
-0.00119894
-0.00137126
-0.00156516
-0.00178151
-0.00202115
-0.00228392
-0.00256808
-0.00287041
-0.00318481
-0.00350237
-0.00381172
-0.00409623
-0.00433283
-0.0044919
-0.0045313
-0.00446605
-0.00432387
-0.00412754
-0.00389532
-0.0036414
-0.00337663
-0.00310909
-0.00284468
-0.00258757
-0.00234066
-0.00210589
-0.00188446
-0.00167709