/*--------------------------------*- C++ -*----------------------------------*\
| =========                 |                                                 |
| \\      /  F ield         | OpenFOAM: The Open Source CFD Toolbox           |
|  \\    /   O peration     | Version:  2412                                  |
|   \\  /    A nd           | Website:  www.openfoam.com                      |
|    \\/     M anipulation  |                                                 |
\*---------------------------------------------------------------------------*/
FoamFile
{
    version     2.0;
    format      ascii;
    arch        "LSB;label=32;scalar=64";
    class       volScalarField;
    location    "2000";
    object      Uz;
}
// * * * * * * * * * * * * * * * * * * * * * * * * * * * * * * * * * * * * * //

dimensions      [0 1 -1 0 0 0 0];

internalField   nonuniform List<scalar> 
32240
(
0
0
0
0
0
0
0
1.99545e-26
1.64215e-26
-3.07529e-26
0
0
-2.1923e-26
2.14512e-26
0
0
-2.26842e-26
2.26374e-26
0
0
0
0
-5.16097e-26
1.21544e-25
-6.87182e-26
-1.09939e-25
1.04274e-25
0
0
0
0
0
0
1.28365e-25
1.07382e-26
1.61276e-25
-3.05173e-25
0
0
0
0
0
0
0
0
0
0
0
-5.44384e-25
5.63285e-25
2.95844e-25
-3.09191e-25
0
0
0
0
0
0
0
0
3.58276e-25
-4.72642e-25
0
0
0
-1.36735e-25
2.14364e-25
0
0
-8.7018e-25
6.22787e-25
-4.79679e-25
3.95919e-25
0
0
0
-5.63999e-25
5.4599e-25
5.34313e-25
-5.26602e-25
1.0421e-24
-2.07138e-24
1.03182e-24
1.02334e-24
-1.02162e-24
0
0
9.73569e-25
-1.89913e-24
1.15483e-26
8.59945e-25
0
0
0
-3.18963e-25
5.60205e-27
2.93495e-25
0
2.75042e-25
-5.50717e-25
-2.6942e-25
5.47369e-27
1.09949e-24
-3.45778e-27
-5.59041e-25
5.6364e-25
-5.7373e-25
-5.83465e-25
5.96159e-25
6.10567e-25
-6.26264e-25
6.45133e-25
-1.3301e-24
6.87378e-25
0
0
-3.90272e-25
4.11579e-25
4.40378e-25
-4.77397e-25
-5.31656e-25
6.11034e-25
3.69344e-25
-4.73131e-25
0
4.51664e-25
-5.95634e-25
0
0
0
0
0
-1.02274e-24
7.94848e-25
0
0
0
0
8.90737e-25
-8.10027e-25
7.59673e-25
-7.25021e-25
7.03791e-25
-6.88359e-25
0
0
1.34557e-24
-1.34136e-24
1.34394e-24
-2.68516e-24
2.682e-24
-1.33437e-24
0
0
0
1.20814e-24
-1.14246e-24
0
-1.03365e-24
4.89136e-25
-3.05487e-27
2.31931e-25
-1.85868e-27
-2.38615e-25
9.58811e-25
-4.86079e-25
0
0
-1.03944e-24
1.05487e-24
1.0864e-24
6.31241e-27
-1.13541e-24
0
-1.20548e-24
-4.41843e-27
1.27691e-24
0
0
-1.42449e-24
2.96843e-24
-7.76376e-25
1.09506e-27
-1.75683e-24
-9.69622e-28
1.06012e-24
0
7.37347e-25
-9.45328e-25
0
-9.0148e-25
1.18723e-24
6.8108e-25
-1.0319e-24
2.1653e-25
0
0
-1.49548e-24
1.15974e-24
0
-1.16611e-24
1.79455e-24
-7.41605e-25
0
0
0
-1.05623e-24
-7.60861e-28
1.00034e-24
1.97362e-24
-1.95457e-24
0
0
0
0
0
0
-1.88609e-24
1.84431e-24
0
1.69296e-24
-1.5998e-24
0
-1.43188e-24
-3.00774e-27
1.31723e-24
0
0
0
1.30411e-24
4.96244e-27
-1.33653e-24
1.36275e-24
4.76488e-27
-2.81927e-24
1.43614e-24
0
0
0
-1.58893e-24
-3.31145e-27
1.68364e-24
0
0
-1.87578e-24
1.95436e-24
1.02604e-24
-2.16782e-24
1.15792e-24
0
1.40025e-24
-1.6115e-24
9.74119e-25
-1.24984e-24
0
0
0
-9.00347e-25
1.3638e-24
-2.87691e-25
0
1.02523e-24
-9.43733e-25
0
0
0
0
-1.86863e-24
1.63322e-24
0
-1.39293e-24
1.3293e-24
2.57664e-24
1.82113e-27
1.83949e-27
-2.4602e-24
2.44847e-24
-2.43848e-24
2.43475e-24
-2.42651e-24
0
0
0
2.31893e-24
-2.23051e-24
0
0
0
1.80452e-24
-1.71946e-24
0
0
-3.95582e-25
1.22613e-24
-2.48653e-24
1.67736e-24
1.71232e-24
-1.73393e-24
0
1.80774e-24
-3.68571e-24
3.77068e-24
-1.92944e-24
0
0
0
2.171e-24
-2.24138e-24
0
-2.41871e-24
2.52162e-24
0
-1.40027e-24
-1.06449e-27
1.62568e-24
1.81038e-24
-2.0849e-24
0
1.6197e-24
-2.20984e-24
-3.09096e-24
6.09748e-24
-2.32804e-24
5.87581e-25
-3.7324e-25
-4.11627e-25
3.1452e-24
-2.31218e-24
0
0
0
2.75779e-24
-2.28073e-24
0
0
0
0
0
0
3.0312e-24
1.84945e-27
-5.96517e-24
2.96974e-24
0
0
0
0
0
0
0
0
0
0
0
0
-1.00353e-24
4.87251e-25
4.73041e-25
9.83162e-25
-9.91972e-25
0
-2.05232e-24
2.07878e-24
-2.12348e-24
2.15796e-24
0
0
0
-2.38013e-24
4.89268e-24
-2.51952e-24
0
0
0
-2.90935e-24
3.03559e-24
0
0
0
0
0
2.52028e-24
-3.04826e-24
1.96005e-24
5.2342e-28
-3.74298e-24
0
1.40769e-24
-7.10323e-25
-4.52235e-25
0
-2.96999e-24
2.72449e-24
-4.19964e-24
2.93646e-24
2.10315e-24
-1.61998e-24
0
0
0
-2.00149e-24
1.90994e-24
0
0
0
0
0
0
0
0
0
0
0
0
0
0
0
0
0
0
0
0
0
0
0
-2.35465e-24
2.38258e-24
-2.43121e-24
2.46731e-24
2.52387e-24
-5.14938e-24
-6.44491e-27
-5.97269e-27
5.5549e-24
-2.85695e-24
-2.9517e-24
3.04577e-24
0
0
0
0
0
0
0
0
0
2.96755e-24
-3.5922e-24
0
3.15841e-24
-8.83232e-24
5.79811e-24
0
0
0
0
0
0
0
3.37091e-24
7.25629e-28
-1.85954e-24
3.08091e-24
1.12148e-27
-2.45467e-24
0
0
0
4.15342e-24
-4.08742e-24
0
4.01889e-24
-3.99697e-24
0
3.96389e-24
-7.8735e-24
3.89547e-24
0
0
0
-3.38465e-24
3.19207e-24
3.02015e-24
-2.85454e-24
0
-1.32562e-24
1.29345e-24
0
0
0
-2.67115e-24
5.41594e-24
-5.50714e-24
5.60794e-24
-5.72026e-24
5.84591e-24
-2.98983e-24
0
0
0
-3.36108e-24
-4.43813e-27
7.1993e-24
3.67511e-27
-3.89375e-24
0
4.2846e-24
-9.07482e-24
4.85865e-24
0
0
-3.40636e-24
4.12697e-24
-2.65804e-24
3.63377e-24
0
0
0
0
0
-1.27851e-24
1.94064e-24
0
0
0
0
0
0
3.04197e-24
-2.76956e-24
0
-4.95247e-24
4.79074e-24
0
4.61078e-24
-4.55938e-24
0
0
0
0
0
0
0
0
0
0
0
3.36823e-24
-3.18367e-24
0
-1.4788e-24
1.44337e-24
0
0
0
0
0
0
0
0
0
0
-3.43835e-24
-6.12315e-27
3.6408e-24
0
0
0
0
0
0
0
0
0
0
0
0
0
0
0
0
0
4.30046e-24
-4.33569e-24
0
0
0
0
6.05036e-24
7.59249e-28
-3.0164e-24
0
0
0
0
0
0
0
0
0
0
0
0
0
0
0
0
0
0
-8.76137e-24
4.13661e-24
-7.23176e-27
3.68946e-24
-3.50423e-24
3.34459e-24
0
0
0
0
3.22907e-24
-3.26498e-24
0
3.38361e-24
-3.43756e-24
7.03508e-24
-7.17849e-24
0
-7.57508e-24
1.16848e-23
-4.01672e-24
0
0
0
0
0
0
0
0
3.04298e-24
-3.31551e-24
0
4.28285e-24
-5.19833e-24
0
0
0
0
0
2.41439e-24
-1.5439e-24
1.57917e-24
-2.38878e-24
0
6.64542e-24
-9.24898e-24
-7.87572e-28
2.55431e-24
0
3.71175e-24
-3.38051e-24
0
0
0
0
5.61777e-24
-5.55115e-24
5.50784e-24
2.37352e-27
2.48382e-27
-5.40401e-24
0
0
0
0
9.53065e-24
-1.80248e-23
4.2401e-24
8.0237e-24
-3.7972e-24
0
0
0
0
0
3.51085e-24
-3.55058e-24
0
3.68034e-24
-3.74036e-24
0
0
0
0
0
-4.39114e-24
4.53695e-24
0
0
0
-5.31739e-24
5.56957e-24
0
0
-3.34462e-24
3.64673e-24
-4.07644e-24
4.71655e-24
0
3.70226e-24
6.85641e-28
-7.09054e-24
-4.63662e-24
5.27963e-24
0
2.47617e-35
0
0
-4.74432e-24
3.61331e-24
0
-3.59465e-24
-2.77591e-24
4.60247e-24
0
-3.67606e-24
3.44079e-24
-6.56897e-24
1.27045e-23
-1.24064e-23
6.09851e-24
0
5.97584e-24
2.44498e-27
-5.89455e-24
0
0
0
0
0
1.02537e-23
-9.68237e-24
0
0
0
-3.91815e-24
5.68553e-24
-9.2467e-25
-1.79968e-24
-9.35706e-25
1.88335e-24
0
0
-3.96319e-24
4.0292e-24
0
0
0
0
0
4.74687e-24
-4.90873e-24
0
0
0
-5.77272e-24
-3.85485e-27
1.27662e-23
3.31934e-27
-3.639e-24
1.53023e-27
1.52655e-27
-5.14826e-24
0
0
0
7.7615e-24
-1.01386e-23
0
0
0
0
0
0
7.79672e-24
-5.41107e-24
0
0
4.96496e-24
-4.35079e-24
3.96618e-24
-1.11397e-23
7.08452e-24
0
0
-6.57644e-24
1.29888e-23
-6.43356e-24
6.38825e-24
-6.34101e-24
-6.29405e-24
6.2268e-24
0
0
0
0
0
0
0
0
-4.18142e-24
4.04246e-24
0
9.62889e-25
9.99442e-25
-2.01204e-24
0
0
0
0
0
-9.0365e-24
1.85367e-23
-9.53171e-24
0
0
0
5.47975e-24
5.34942e-27
-1.18883e-23
1.24347e-23
-1.30547e-23
-3.76913e-27
7.32125e-24
0
0
-4.81189e-24
5.57733e-24
-6.79351e-24
1.31866e-23
-6.03217e-24
0
5.50085e-24
-6.24924e-24
-3.14506e-24
2.01401e-24
0
0
0
0
0
0
0
0
0
0
0
0
7.33488e-24
-1.43151e-23
-2.41169e-27
-2.47067e-27
6.8751e-24
6.82268e-24
-6.7679e-24
0
0
0
0
0
0
-1.09589e-23
1.03145e-23
0
0
0
0
0
0
0
-4.28177e-24
4.33237e-24
0
0
-9.16812e-24
9.34941e-24
0
0
0
0
0
0
0
0
0
0
0
0
7.85712e-24
-8.44731e-24
0
0
0
0
0
-6.51248e-24
1.82016e-23
-1.18605e-23
0
0
0
0
-6.49969e-24
5.87342e-24
0
0
-4.40428e-24
3.40362e-24
5.65496e-24
-4.95843e-24
-4.52124e-24
4.23209e-24
0
0
0
0
0
0
0
0
0
0
0
0
0
0
0
0
0
0
0
0
0
0
0
0
0
0
0
0
0
0
0
0
0
-1.14955e-23
1.19178e-23
-6.20568e-24
6.46256e-24
6.75825e-24
5.00386e-27
-7.44141e-24
-7.87011e-24
8.37585e-24
0
0
0
0
0
-5.08566e-24
6.99032e-24
0
-6.35759e-24
7.20447e-24
3.62221e-24
-2.32081e-24
0
6.91207e-24
-1.2469e-23
1.41114e-23
-6.50518e-24
-9.31143e-24
7.19857e-24
0
0
-4.78501e-24
-4.48149e-24
-2.47425e-27
1.65162e-23
-8.05382e-24
-7.9106e-24
7.80077e-24
7.72052e-24
-7.64756e-24
0
-1.50129e-23
1.48116e-23
0
0
-1.35073e-23
1.27899e-23
0
0
0
0
0
0
0
0
0
0
0
4.88715e-24
-4.96411e-24
0
0
0
1.09583e-23
-1.12818e-23
1.16852e-23
-1.20958e-23
0
0
-6.83375e-24
7.14047e-24
7.49399e-24
-7.88253e-24
8.34369e-24
-8.88709e-24
9.57826e-24
-1.04837e-23
0
0
-8.35813e-24
1.08536e-23
-7.46837e-24
1.04337e-23
0
0
3.85684e-24
-2.47163e-24
-2.43784e-24
1.09709e-23
-6.58358e-24
-9.9109e-24
-9.54817e-28
4.8977e-24
0
0
-5.5284e-24
1.00803e-23
-1.41578e-23
8.99985e-24
8.6978e-24
-8.479e-24
0
8.209e-24
-8.11523e-24
0
-7.96398e-24
7.87506e-24
1.55395e-23
-1.52162e-23
1.47467e-23
-1.40831e-23
1.33524e-23
-1.25734e-23
0
0
0
0
0
0
1.17796e-24
-1.215e-24
0
-5.01904e-24
5.08947e-24
-1.03976e-23
1.0588e-23
-1.08608e-23
-2.29268e-26
1.14458e-23
0
0
1.27033e-23
-1.31926e-23
0
0
0
7.89498e-24
-8.31159e-24
0
-9.39113e-24
1.01207e-23
5.54775e-24
-6.22791e-24
7.25147e-24
-8.86818e-24
0
0
0
7.20294e-24
1.75172e-28
-4.08814e-24
-2.62032e-24
0
-7.7049e-24
1.38416e-23
-5.19578e-24
0
-1.02596e-23
-1.76574e-27
6.60054e-24
0
0
0
0
-9.11502e-24
-2.59121e-27
8.71604e-24
0
0
0
0
1.6458e-23
-3.24257e-23
3.17244e-23
1.18987e-26
1.46328e-26
-1.38402e-23
1.30636e-23
-1.22835e-23
0
0
0
0
-1.26116e-24
1.21946e-24
0
0
-5.21737e-24
1.0598e-23
5.42095e-24
-1.10149e-23
0
-1.16041e-23
1.19252e-23
-1.23382e-23
1.27572e-23
0
-6.90275e-24
1.43909e-23
-7.51777e-24
-7.88352e-24
1.65584e-23
-1.74595e-23
9.24864e-24
9.87769e-24
-1.0654e-23
0
-6.57001e-24
1.53086e-23
-9.37395e-24
-1.22101e-23
1.68307e-23
0
0
0
0
0
0
0
0
0
-7.47953e-24
1.60525e-23
1.79654e-27
1.6081e-27
-6.04988e-24
0
0
0
0
-9.27231e-24
1.81867e-23
-8.95743e-24
8.85262e-24
-8.75543e-24
0
0
1.68568e-23
1.021e-26
-1.58813e-23
0
0
0
0
0
0
0
-2.65587e-24
1.29618e-24
-4.71321e-27
1.3069e-24
0
0
5.4959e-24
-5.58642e-24
1.14429e-23
-1.1692e-23
0
-1.24002e-23
1.27916e-23
1.32798e-23
-1.37796e-23
-7.18651e-24
-8.23376e-27
7.84108e-24
8.23034e-24
-8.64823e-24
0
9.68723e-24
-1.03444e-23
-1.11772e-23
6.13025e-24
6.90003e-24
0
0
0
0
0
0
9.05003e-24
-9.07891e-24
0
0
8.4539e-24
3.72274e-28
-5.64836e-24
0
0
8.61099e-24
-7.16397e-24
0
0
0
0
0
9.63568e-24
-1.88922e-23
1.86045e-23
-9.1846e-24
0
1.7967e-23
-1.77309e-23
1.74486e-23
-1.70144e-23
0
1.56108e-23
-1.47321e-23
1.38964e-23
-1.30618e-23
0
0
5.6314e-24
-8.19292e-24
2.68073e-24
0
0
0
0
-5.67125e-24
5.76595e-24
0
-1.2105e-23
1.24125e-23
0
-1.32598e-23
1.37302e-23
1.43019e-23
-2.9801e-23
7.77207e-24
8.14897e-24
-8.56179e-24
9.00488e-24
0
1.01055e-23
-1.08005e-23
0
0
0
0
0
0
9.34969e-24
-1.30546e-23
0
0
0
0
0
0
0
0
0
1.1512e-23
-8.91613e-24
0
-6.52124e-24
1.18953e-23
-5.56706e-24
0
0
0
0
0
0
9.3896e-24
9.28246e-24
-1.83013e-23
0
-1.75332e-23
3.37101e-23
-1.60127e-23
1.51381e-23
-1.42322e-23
1.34246e-23
-1.2641e-23
0
-5.78053e-24
2.79245e-24
2.75347e-24
1.34228e-24
-1.38515e-24
-5.64043e-24
5.71279e-24
0
1.18953e-23
-1.21274e-23
-1.24621e-23
2.5597e-23
-1.3189e-23
-1.36752e-23
1.41707e-23
1.47736e-23
-1.53953e-23
0
0
-8.87702e-24
9.34519e-24
0
0
0
0
0
0
0
0
1.41855e-23
-2.94261e-23
1.36944e-23
0
-9.92639e-24
9.94473e-24
-4.63888e-35
-3.06693e-24
4.57002e-24
0
0
0
0
-9.20186e-24
1.53242e-23
1.50946e-27
-1.22827e-23
-5.7508e-24
1.09549e-23
0
0
0
0
0
0
-1.90962e-23
1.88183e-23
0
-1.79872e-23
1.72575e-23
1.64029e-23
-1.54593e-23
0
0
0
0
0
2.87595e-24
-2.8189e-24
0
0
0
0
-5.97926e-24
6.0817e-24
0
0
1.3155e-23
2.8013e-26
-1.40323e-23
0
-1.52122e-23
1.58659e-23
-8.31539e-24
8.7152e-24
0
0
0
0
0
-1.2635e-23
2.08581e-23
-7.84578e-24
0
0
0
0
-1.43267e-23
1.84566e-23
0
-5.18077e-24
3.32128e-24
3.17821e-24
-4.72989e-24
0
0
0
0
9.46391e-24
-1.57667e-23
-1.54677e-27
1.26418e-23
-1.77502e-23
1.12726e-23
0
0
0
0
1.00514e-23
-1.98411e-23
2.93745e-23
-1.92855e-23
0
1.839e-23
-1.76187e-23
-1.67313e-23
-2.36135e-26
1.48303e-23
-1.39888e-23
1.97746e-23
1.75722e-26
-6.0138e-24
-2.93446e-24
2.87701e-24
0
0
0
0
-6.11114e-24
6.2171e-24
1.27552e-23
-2.61359e-23
1.34346e-23
0
-1.44092e-23
-2.60476e-26
1.55921e-23
1.63237e-23
-1.70829e-23
0
9.45399e-24
-9.97159e-24
0
0
0
0
0
0
-9.54564e-24
1.17713e-23
0
0
0
0
0
0
0
-3.28369e-24
4.87961e-24
0
0
0
0
0
0
0
0
0
0
0
0
0
0
0
0
0
-1.971e-23
1.93007e-23
0
1.79479e-23
-1.69927e-23
0
0
0
-6.71029e-24
1.27408e-23
-6.11499e-24
-2.98529e-24
4.39702e-24
-1.42338e-24
0
-6.01439e-24
1.22085e-23
2.0007e-26
-6.33701e-24
0
0
0
0
1.47259e-23
-1.52922e-23
0
0
0
0
0
0
0
0
0
0
0
0
9.89095e-24
-1.22166e-23
0
0
1.55564e-23
-1.99707e-23
1.11595e-23
-1.1155e-23
0
-3.37757e-24
4.95174e-24
0
1.28822e-23
-1.78065e-23
6.39058e-24
0
0
0
0
0
1.1833e-23
-1.14052e-23
0
0
0
0
0
-2.04118e-23
2.00662e-23
0
-1.90396e-23
1.81942e-23
0
-1.62613e-23
-3.03389e-26
2.87769e-23
-2.03641e-23
-1.96118e-26
6.20009e-24
0
0
0
-3.00892e-24
-3.06615e-24
6.19029e-24
6.32885e-24
-6.44106e-24
1.32265e-23
3.6492e-26
3.47161e-26
-1.44306e-23
1.50075e-23
2.91658e-26
-1.62899e-23
0
-8.96835e-24
1.88623e-23
-9.94341e-24
0
-1.11752e-23
1.19133e-23
0
0
0
8.6972e-24
-1.02189e-23
0
0
0
0
0
0
0
-5.37695e-35
0
0
0
1.31414e-23
-1.81507e-23
6.51435e-24
0
0
0
6.77308e-24
-1.90121e-23
1.20661e-23
1.16318e-23
-1.13039e-23
0
0
1.06872e-23
-1.05268e-23
-2.07438e-23
-9.99989e-27
1.99167e-23
0
-1.8426e-23
-2.38118e-26
1.64065e-23
0
-1.4556e-23
1.3705e-23
-6.53699e-24
6.26839e-24
0
0
0
0
-6.18791e-24
-2.32382e-26
-2.21263e-26
6.52874e-24
0
0
-1.41993e-23
1.46548e-23
0
0
0
0
9.1461e-24
1.1449e-26
-1.01601e-23
1.07687e-23
8.94594e-27
-2.44293e-23
1.31338e-23
0
7.89699e-24
-8.94946e-24
0
1.30643e-23
-1.72331e-23
0
1.67313e-23
-2.13978e-23
0
5.9438e-24
-3.80905e-24
0
-1.03805e-23
1.80709e-23
6.68561e-24
-9.22233e-24
1.32415e-23
-1.02852e-23
0
0
-6.8886e-24
6.44366e-24
1.22705e-23
-2.36412e-23
-3.11465e-27
1.12253e-23
0
-1.08412e-23
1.06719e-23
-2.10161e-23
2.06264e-23
0
1.94742e-23
-1.85658e-23
0
0
1.55794e-23
-1.46284e-23
0
0
0
0
0
1.48344e-24
1.54545e-24
-3.11247e-24
0
-6.48237e-24
6.59966e-24
-1.35651e-23
-4.05217e-26
-3.86221e-26
1.48424e-23
0
1.61204e-23
-1.68324e-23
0
9.30238e-24
1.21599e-26
-1.03538e-23
0
0
1.24911e-23
-1.34402e-23
-1.4637e-23
2.4289e-23
-9.18956e-24
1.08374e-23
-2.69148e-23
-4.08642e-27
2.47993e-23
0
0
0
-6.11333e-24
3.91703e-24
0
0
-9.187e-24
6.78021e-24
0
0
0
8.70066e-24
-7.65277e-24
0
-1.30682e-23
1.24336e-23
0
1.1634e-23
-1.13634e-23
0
-1.09631e-23
-4.22825e-27
1.06082e-23
-2.08269e-23
2.03016e-23
0
1.86929e-23
2.69058e-26
-3.32518e-23
1.56169e-23
-1.47356e-23
2.08313e-23
-6.59952e-24
0
-3.10804e-24
3.05085e-24
0
-3.09915e-24
3.13488e-24
6.40839e-24
-1.30434e-23
6.65327e-24
0
-1.40652e-23
-4.0772e-26
1.4992e-23
0
-1.63084e-23
1.70415e-23
1.79272e-23
-1.88442e-23
0
-1.0535e-23
-1.09815e-26
1.18918e-23
0
1.37269e-23
-1.49478e-23
8.28501e-24
-9.41267e-24
0
0
0
0
0
0
0
0
0
0
0
-9.31474e-24
6.85739e-24
0
0
0
-8.79317e-24
-1.75432e-27
7.05838e-24
0
-1.25659e-23
-3.20629e-27
-3.30152e-27
1.1467e-23
0
1.10514e-23
-1.08658e-23
-2.13708e-23
-1.18318e-26
-1.47105e-26
3.93387e-23
-1.87202e-23
0
0
0
0
0
0
-6.39386e-24
6.20763e-24
0
-1.49952e-24
1.5487e-24
-6.32604e-24
6.41279e-24
-6.56805e-24
-6.73839e-24
1.37163e-23
-1.41547e-23
-4.3052e-26
1.51022e-23
-1.5756e-23
-3.6629e-26
3.44479e-23
3.20239e-26
-1.90624e-23
0
0
-1.13424e-23
1.20797e-23
0
0
0
0
-9.62151e-24
2.27512e-23
-1.4181e-23
0
1.31676e-23
1.56512e-27
-1.16606e-23
-1.29034e-23
-6.42068e-24
4.11213e-24
0
0
-9.41638e-24
6.91443e-24
0
0
0
-8.85856e-24
7.7941e-24
-7.11351e-24
-6.65431e-24
1.26523e-23
-1.21801e-23
1.18167e-23
-1.15375e-23
-3.7998e-27
1.11e-23
0
0
0
2.04534e-23
-1.96699e-23
0
1.76966e-23
-1.66197e-23
0
1.47461e-23
-6.91578e-24
-1.32401e-23
-2.72618e-26
9.32462e-24
-3.06173e-24
0
0
0
6.45368e-24
-6.55699e-24
0
1.38073e-23
-1.41585e-23
1.46722e-23
-1.51718e-23
0
-1.65565e-23
1.73263e-23
9.13151e-24
-9.61525e-24
1.01837e-23
1.34763e-26
-1.14661e-23
1.22488e-23
-1.31251e-23
1.41889e-23
-3.09794e-23
1.7198e-23
-9.80553e-24
1.161e-23
0
0
0
1.88415e-23
-1.19449e-23
-2.63783e-23
1.31121e-23
0
0
0
0
0
0
1.36922e-23
-1.0647e-23
0
0
0
0
1.27035e-23
-1.22182e-23
0
-1.15659e-23
1.13236e-23
0
0
0
0
0
0
0
0
0
0
0
0
0
0
0
0
-1.4986e-24
1.54805e-24
0
0
0
0
0
-1.42182e-23
2.93369e-23
-1.51996e-23
0
0
1.74375e-23
-9.14301e-24
-9.67361e-24
0
-1.08846e-23
1.15719e-23
-1.23761e-23
1.32758e-23
0
0
0
0
1.18278e-23
-1.48039e-23
0
0
0
0
0
0
0
0
-1.10929e-23
9.52879e-24
0
0
1.36943e-23
-1.06512e-23
-8.90127e-24
-1.86652e-27
7.14742e-24
0
0
0
0
0
0
-1.10953e-23
-5.01287e-27
1.06837e-23
2.09159e-23
-2.03023e-23
1.95182e-23
-1.85151e-23
0
1.64637e-23
-1.5436e-23
0
-6.88797e-24
-2.94062e-26
6.29959e-24
0
-1.52677e-24
1.48202e-24
0
0
0
6.56039e-24
6.74203e-24
-1.37232e-23
0
0
0
0
1.66238e-23
-1.74216e-23
-9.20059e-24
9.70444e-24
-1.03006e-23
-1.52908e-26
1.16452e-23
0
0
0
1.58829e-23
-1.76727e-23
1.0106e-23
5.61039e-27
-1.507e-23
2.01611e-23
-2.83344e-23
0
-1.24485e-23
-3.90292e-28
6.78557e-24
4.34204e-24
-3.85132e-24
1.66955e-23
4.5721e-28
-6.94682e-24
-9.51448e-24
-6.82459e-24
1.06166e-23
0
-7.81297e-24
7.12639e-24
1.33251e-23
-1.26591e-23
0
0
0
0
0
1.08239e-23
-1.06076e-23
-2.07534e-23
2.01251e-23
1.93302e-23
-1.83219e-23
1.73132e-23
-1.62435e-23
0
0
0
0
0
-3.06224e-24
3.00883e-24
0
3.07632e-24
-3.11296e-24
6.38299e-24
3.19203e-26
6.70407e-24
-1.36448e-23
0
-1.46053e-23
1.51224e-23
0
1.65848e-23
-1.73928e-23
-9.19499e-24
9.7066e-24
-1.03143e-23
1.09523e-23
0
-1.25265e-23
1.34665e-23
0
0
0
1.02176e-23
-1.2163e-23
0
-2.05252e-23
2.89015e-23
2.01171e-23
-2.53202e-23
0
-6.87692e-24
4.39866e-24
0
0
0
0
-9.44653e-24
6.77191e-24
1.05432e-23
-8.81139e-24
0
0
0
1.25688e-23
-1.20735e-23
0
1.13958e-23
-2.22818e-23
-4.8972e-27
1.07053e-23
0
0
0
0
0
1.70661e-23
-1.60069e-23
0
-1.42179e-23
6.65792e-24
6.37625e-24
-6.18722e-24
9.03496e-24
-4.46713e-24
2.91536e-24
1.53161e-24
-3.07975e-24
0
6.45747e-24
-6.58101e-24
0
0
1.44948e-23
-3.00826e-23
-5.17688e-26
1.64453e-23
0
0
0
0
1.09604e-23
-2.33916e-23
1.25302e-23
1.35153e-23
-1.46544e-23
-1.6095e-23
2.69393e-23
-1.0294e-23
0
0
0
0
-2.04607e-23
1.28412e-23
1.40436e-23
6.94994e-24
-4.44354e-24
0
1.10772e-23
5.10233e-28
6.83988e-24
-9.33989e-24
0
-1.0425e-23
8.71442e-24
0
-7.00148e-24
6.53932e-24
0
0
0
0
-1.09921e-23
1.07615e-23
0
-1.03369e-23
3.02694e-23
-1.95388e-23
0
0
0
1.57608e-23
5.57389e-26
-1.39007e-23
0
-6.29883e-24
1.21304e-23
-5.91106e-24
0
1.44131e-24
-1.48946e-24
0
0
6.37471e-24
-6.49742e-24
0
-1.38445e-23
1.42779e-23
0
-1.55843e-23
3.26507e-23
-1.71711e-23
0
9.64066e-24
-2.04694e-23
2.18159e-23
-1.16533e-23
0
0
0
1.61272e-23
-9.00127e-24
-1.03453e-23
0
0
0
-1.4924e-23
2.07535e-23
-1.29916e-23
2.83399e-23
-2.10109e-23
4.47606e-24
0
0
0
0
0
0
0
8.58194e-24
-7.55526e-24
-6.89312e-24
6.43643e-24
0
0
0
0
0
0
1.03515e-23
-1.01256e-23
0
0
0
0
0
0
0
0
0
0
0
0
-1.44376e-24
-1.17812e-26
1.46191e-24
0
0
0
0
0
0
0
0
1.53829e-23
-1.60978e-23
-1.70261e-23
1.79572e-23
0
-1.01582e-23
1.08167e-23
0
-1.2459e-23
1.34389e-23
0
0
0
0
0
1.57536e-23
-3.19592e-23
-3.22751e-27
2.09934e-23
0
1.42541e-23
-1.40722e-23
0
0
0
0
1.3226e-23
-9.00627e-24
-6.45331e-24
5.02413e-24
0
-7.40364e-24
6.7503e-24
0
1.19658e-23
-2.29606e-23
1.11014e-23
0
-1.0544e-23
2.06267e-23
-1.00947e-23
0
0
0
1.78429e-23
-1.6869e-23
-1.59388e-23
1.49374e-23
0
0
6.28972e-24
-5.96661e-24
0
0
0
0
0
-5.87672e-24
1.19641e-23
-6.10308e-24
0
0
0
-1.38773e-23
1.43909e-23
1.51268e-23
-1.58386e-23
0
0
0
1.00349e-23
-1.06951e-23
-1.14808e-23
1.23305e-23
0
0
0
0
0
-1.24309e-23
1.57965e-23
0
0
0
0
0
0
0
-3.71e-24
5.31234e-24
0
0
0
0
0
0
0
0
0
0
0
0
1.04969e-23
-1.02364e-23
0
0
0
0
0
1.72729e-23
4.20004e-26
-1.53748e-23
0
-1.36551e-23
1.27978e-23
0
0
0
-2.76105e-24
2.71492e-24
-1.34462e-24
4.19479e-24
-8.56439e-24
5.80788e-24
-5.99178e-24
6.10895e-24
1.26584e-23
-1.30038e-23
0
1.41451e-23
-2.95617e-23
-6.23081e-26
1.63935e-23
8.71579e-24
-9.23694e-24
0
0
0
1.21895e-23
-2.63739e-23
1.43766e-23
-1.58791e-23
1.78142e-23
-1.02916e-23
1.23796e-23
0
1.07575e-23
3.6772e-27
2.64458e-27
-2.63978e-23
0
0
0
0
0
0
0
8.49063e-24
-6.07777e-24
0
7.92508e-24
-6.97775e-24
0
0
1.12624e-23
-1.07927e-23
0
0
0
0
-9.44618e-24
1.84548e-23
-8.98164e-24
-1.73831e-23
-3.5865e-26
1.56947e-23
0
1.39606e-23
-1.30694e-23
0
0
-5.61288e-24
5.389e-24
-2.66605e-24
1.29783e-24
1.28716e-24
0
0
5.67669e-24
4.41772e-26
-1.19037e-23
-6.19272e-24
1.2642e-23
1.32079e-23
-1.37059e-23
1.44415e-23
6.61445e-26
-1.60051e-23
0
-9.06353e-24
-2.5674e-26
1.03243e-23
1.11111e-23
-1.19584e-23
0
-1.41813e-23
1.56495e-23
0
0
-1.2294e-23
-9.44562e-27
1.07395e-23
3.06968e-23
2.80161e-27
-2.63462e-23
0
-6.98478e-24
4.45433e-24
3.51132e-24
-5.00955e-24
-8.41166e-24
6.01195e-24
0
5.83658e-24
-4.54597e-24
0
-6.70401e-24
6.10962e-24
0
0
1.03563e-23
-9.99588e-24
0
0
0
0
0
0
0
0
0
1.41714e-23
-1.32711e-23
0
5.92585e-24
-5.5713e-24
0
-5.21088e-24
5.06485e-24
0
1.25165e-24
-1.29416e-24
0
5.47649e-24
-5.5691e-24
-5.77118e-24
5.9055e-24
0
0
-1.33534e-23
1.39342e-23
0
0
0
-8.82495e-24
1.88227e-23
-2.01678e-23
2.16824e-23
-2.34071e-23
2.54064e-23
-1.38847e-23
-7.69137e-24
8.65461e-24
0
0
0
0
0
-2.12481e-23
2.61833e-23
-1.40775e-23
1.38202e-23
0
0
9.61015e-24
-8.04287e-24
0
0
-5.55462e-24
1.29835e-23
-1.44903e-23
6.38035e-24
-5.81779e-24
5.42394e-24
0
0
0
0
0
0
-8.56856e-24
8.35675e-24
8.14228e-24
-2.35769e-23
1.49872e-23
0
0
0
0
0
0
-5.10995e-24
4.90605e-24
0
1.21356e-24
-1.18027e-24
0
0
0
0
-5.5424e-24
5.67191e-24
0
1.23133e-23
-1.27854e-23
-1.35101e-23
1.41744e-23
0
8.01645e-24
-8.51366e-24
9.13531e-24
2.71719e-26
-1.0517e-23
0
0
1.3557e-23
-1.50005e-23
0
0
1.19317e-23
1.09088e-26
-2.11642e-23
0
0
0
0
-6.80256e-24
4.33218e-24
-3.20975e-24
4.56204e-24
0
0
0
5.23281e-24
-4.07669e-24
0
0
0
0
-9.67907e-24
9.2603e-24
-8.93689e-24
8.66207e-24
-8.43795e-24
8.22653e-24
0
0
0
-1.47474e-23
-4.35639e-26
-5.44001e-26
-6.53407e-26
2.36551e-23
8.70397e-26
-5.18924e-24
-4.9679e-24
4.81473e-24
-4.62246e-24
-2.3032e-24
1.11725e-24
1.11712e-24
2.37603e-24
-2.40606e-24
0
0
5.28547e-24
-1.63243e-23
2.25313e-23
-1.16857e-23
1.23167e-23
8.3079e-26
-1.35878e-23
0
0
0
0
0
1.01758e-23
2.5171e-26
-2.39327e-23
2.62482e-23
-2.18407e-23
1.64612e-23
1.0797e-26
-1.16407e-23
0
0
0
2.08152e-23
-2.54669e-23
0
0
-3.08286e-35
0
0
-7.11953e-24
-5.04584e-24
6.80886e-24
4.8696e-24
-1.1385e-23
1.271e-23
-5.59625e-24
0
4.75436e-24
-4.49763e-24
0
-8.3001e-24
8.03976e-24
7.82773e-24
-7.62707e-24
0
0
-7.07271e-24
6.81163e-24
0
-1.23712e-23
2.32857e-23
-1.09281e-23
1.03893e-23
-4.81112e-24
-4.61744e-24
0
-4.36878e-24
6.40104e-24
-2.11948e-24
0
2.23528e-24
2.32494e-24
-9.3711e-24
9.64492e-24
-4.94646e-24
1.0335e-23
9.8215e-26
-1.10786e-23
0
0
0
0
0
0
8.41283e-24
-9.01035e-24
0
0
-1.15061e-23
-2.38797e-26
1.40172e-23
0
0
0
0
1.01937e-23
5.1119e-27
-2.04137e-23
0
1.32523e-23
-1.94232e-23
4.11647e-24
0
-7.89856e-24
6.54983e-24
0
-6.23911e-24
4.45798e-24
0
0
0
0
0
0
0
0
7.34929e-24
-7.14049e-24
0
0
0
0
0
0
-1.12909e-23
1.05924e-23
-1.00656e-23
1.41668e-23
-8.95527e-24
-5.91887e-26
-6.16169e-26
3.96426e-24
1.99058e-24
-2.95515e-24
9.69897e-25
0
0
0
0
4.68204e-24
-9.63853e-24
4.98221e-24
0
0
-1.16018e-23
1.21879e-23
-6.52204e-24
6.91311e-24
-7.43575e-24
1.59152e-23
-8.54754e-24
0
0
0
-1.20495e-23
6.68026e-24
1.51947e-23
1.24951e-26
-1.08519e-23
0
0
0
1.98756e-23
-2.41327e-23
0
6.24699e-24
-3.96811e-24
0
0
0
0
-5.59531e-24
7.99295e-24
-3.11524e-24
0
0
4.18832e-24
-3.89834e-24
7.37531e-24
-7.04325e-24
6.78585e-24
-6.56444e-24
0
0
0
-5.91935e-24
5.74238e-24
0
1.064e-23
-1.00346e-23
0
9.02774e-24
-8.43892e-24
4.0559e-24
-3.80889e-24
0
0
1.8109e-24
-2.69122e-24
8.85129e-25
-1.90901e-24
1.93373e-24
-4.05902e-24
4.1288e-24
4.33264e-24
5.67477e-26
-4.61822e-24
-9.76592e-24
1.015e-23
0
0
0
0
0
7.48342e-24
-8.02548e-24
8.71325e-24
3.07401e-26
-1.03023e-23
-1.13749e-23
1.26511e-23
0
8.4307e-24
-1.03283e-23
0
0
1.38538e-23
3.91755e-27
-2.31886e-23
0
0
2.75719e-35
-2.22229e-24
9.5949e-24
-5.34888e-24
0
-4.89817e-24
6.95806e-24
2.71264e-24
-4.53895e-24
0
0
0
0
0
0
0
0
0
0
5.1344e-24
-4.97942e-24
0
0
-8.79361e-24
8.24691e-24
0
3.744e-24
-3.50168e-24
-3.41453e-24
6.54212e-24
-3.17335e-24
0
0
0
0
3.56125e-24
-3.61482e-24
0
0
0
0
0
9.41684e-24
-1.48214e-23
5.23073e-24
0
0
0
-6.93484e-24
7.44145e-24
0
8.79843e-24
-9.58936e-24
0
0
6.73451e-24
-7.8875e-24
-9.72354e-24
-1.5857e-26
1.80439e-23
0
1.82892e-23
-1.10147e-23
-1.16115e-23
0
0
-1.87222e-24
2.69615e-24
0
0
0
0
0
0
0
0
0
0
0
0
0
0
0
0
0
0
0
0
3.68425e-24
-3.45477e-24
0
0
-3.03019e-24
5.76054e-24
-5.60205e-24
2.72425e-24
0
0
0
0
0
0
0
3.53078e-24
-3.61438e-24
0
0
0
-4.50092e-24
4.73328e-24
0
0
0
0
-6.83287e-24
7.36702e-24
0
0
0
0
0
0
0
0
8.4503e-24
-1.24252e-23
0
0
-1.08417e-23
1.05194e-23
0
-1.47541e-24
2.12623e-24
3.53696e-24
-2.42712e-24
0
-2.26719e-24
1.76517e-24
0
2.60784e-24
2.28047e-27
-2.20679e-24
4.17299e-24
-3.97763e-24
0
-3.70571e-24
3.5916e-24
0
0
0
0
0
0
-2.90918e-24
2.7277e-24
0
0
-2.44961e-24
-7.77088e-26
4.58206e-24
-2.23703e-24
0
0
0
-1.29661e-24
1.31388e-24
0
2.94658e-24
6.93197e-26
-3.14785e-24
-3.3708e-24
-6.31494e-26
3.68919e-24
3.98231e-24
5.67522e-26
-4.48888e-24
-4.87511e-24
5.19691e-24
0
-6.11898e-24
6.60053e-24
0
0
0
0
0
6.59717e-24
-8.14951e-24
0
7.75512e-24
7.11514e-27
-1.58833e-23
0
0
0
0
0
0
0
0
0
-1.5687e-24
1.22136e-24
0
0
0
0
0
0
0
0
0
0
0
0
0
0
0
0
0
0
0
0
0
0
-1.79729e-24
8.28143e-25
9.03777e-25
4.8795e-25
-5.05205e-25
0
0
-2.45791e-24
-7.32727e-26
-7.08239e-26
5.64734e-24
-2.95477e-24
0
0
0
-3.92507e-24
-5.43078e-26
9.05959e-24
-9.80017e-24
5.29105e-24
0
6.33162e-24
-1.38635e-23
1.53494e-23
-4.27545e-24
-4.90877e-24
0
7.21633e-24
-9.6026e-24
0
-1.03242e-23
2.86318e-23
-8.52643e-24
-8.89336e-24
-4.29913e-24
2.71301e-24
0
0
1.26387e-24
8.62378e-25
-1.12817e-24
0
0
0
0
0
0
0
0
0
0
0
0
0
0
0
0
1.17318e-24
4.69962e-26
5.66861e-26
6.62397e-26
-2.18469e-24
2.19461e-24
-2.2255e-24
1.09593e-24
0
0
3.43744e-25
-3.34784e-25
0
1.70571e-24
-1.73194e-24
0
2.04552e-24
-4.26293e-24
4.53362e-24
-2.38128e-24
0
0
0
0
3.51613e-24
-7.5563e-24
4.07464e-24
0
0
0
0
0
0
-4.1809e-24
4.92122e-24
6.1461e-24
-8.20603e-24
0
0
0
0
0
1.8569e-24
-1.1695e-24
0
0
-6.6681e-26
4.52366e-26
0
0
-5.84873e-26
9.57866e-26
-4.11809e-26
0
2.84061e-26
-2.67496e-26
3.96305e-26
-7.06032e-27
-2.97968e-26
0
0
0
0
-5.52314e-26
1.36997e-25
-7.98775e-26
0
-2.14812e-25
2.00678e-25
0
-4.03009e-25
3.77705e-25
0
-6.25029e-25
6.07288e-25
0
0
5.16591e-25
-1.66688e-24
2.41169e-24
-1.27266e-24
0
-1.58204e-24
1.62683e-24
0
0
0
0
0
0
0
0
0
0
0
0
0
0
0
0
0
0
0
0
0
0
0
0
0
0
1.87155e-24
-1.53469e-24
0
0
0
-1.48697e-24
1.95691e-27
1.0939e-24
0
0
0
-1.62645e-24
7.64754e-27
9.01193e-27
1.43468e-24
0
-1.31231e-24
1.2744e-24
0
0
0
-9.07195e-25
6.59704e-26
1.38852e-24
-8.77035e-26
-8.8069e-25
6.30988e-25
-2.49756e-25
0
0
0
0
0
0
-6.40141e-25
1.39348e-24
-1.60136e-24
8.64267e-25
0
0
-1.29889e-24
1.35964e-24
-1.58372e-24
-6.92339e-26
1.85601e-24
0
2.32198e-24
-2.49727e-24
2.80725e-24
4.81153e-26
-6.81043e-24
3.77863e-24
-2.15481e-24
-2.13182e-26
5.84406e-24
2.45287e-26
-4.88916e-24
-3.59509e-24
-1.10752e-26
7.75325e-24
-4.62937e-24
9.57809e-24
-5.75769e-24
7.20645e-25
0
-1.9272e-24
4.72488e-24
-6.36963e-24
2.76529e-24
0
0
-2.54854e-24
2.24175e-24
0
-1.88027e-24
3.53374e-24
1.66964e-24
-3.2033e-24
-3.06455e-24
1.19167e-26
1.42886e-26
2.76081e-24
-2.64216e-24
2.56049e-24
0
0
0
1.86438e-24
-8.30914e-26
-1.54577e-24
0
1.05878e-24
-1.88983e-24
8.51566e-25
0
0
0
0
-1.17905e-25
1.19753e-25
-7.75269e-26
-9.26425e-26
1.75777e-25
0
0
0
6.65985e-25
-7.01409e-25
-8.98472e-25
9.55565e-25
0
0
0
-1.63545e-24
1.77572e-24
0
-1.15039e-24
1.28409e-24
0
0
0
-1.51461e-24
4.43098e-24
-3.40382e-24
0
2.93784e-24
-3.03846e-24
7.2987e-25
-4.53085e-25
0
-2.95032e-24
2.36535e-24
0
0
-3.03367e-24
2.36458e-24
-3.9582e-24
3.48129e-24
-3.15533e-24
2.93015e-27
2.74596e-24
-5.20033e-24
4.97404e-24
0
-4.58953e-24
4.44567e-24
0
0
-3.97558e-24
3.83294e-24
0
0
0
0
2.45163e-24
-2.28546e-24
0
0
0
0
2.94138e-25
-5.39478e-25
2.6212e-25
0
0
6.39478e-25
-6.52298e-25
0
0
0
0
0
9.09904e-26
-7.87884e-26
-7.46693e-26
1.89948e-25
-1.39527e-25
2.83309e-25
-3.0611e-25
0
0
3.24544e-25
-3.62159e-25
0
5.6894e-25
-1.4317e-24
9.71369e-25
0
0
1.68775e-24
-2.04385e-24
0
2.54589e-25
-1.52165e-25
0
0
6.60421e-24
-4.49139e-24
0
0
0
0
0
0
0
0
0
0
0
0
0
-5.93393e-24
1.14937e-23
-5.55807e-24
0
0
0
0
0
3.53111e-24
-1.2086e-25
-2.96488e-24
2.55179e-24
-2.44553e-24
0
0
0
0
0
0
0
0
0
-1.20453e-24
1.24527e-24
0
0
0
1.00806e-24
-1.07265e-24
0
-9.86602e-25
1.06173e-24
0
0
-1.08462e-24
6.23982e-25
2.55357e-26
6.95393e-25
0
0
-5.83208e-25
8.48985e-25
1.27142e-24
-9.49917e-27
-1.13275e-24
-1.17125e-24
0
2.70185e-36
-1.99729e-24
2.72455e-24
8.6613e-24
-5.86706e-24
0
0
0
0
0
0
0
0
0
0
8.57587e-24
-8.27353e-24
-7.97538e-24
2.15651e-26
2.66989e-26
1.4424e-23
-4.39094e-26
-6.60118e-24
0
0
-5.16917e-24
4.81387e-24
0
3.82993e-24
-3.61963e-24
0
0
0
6.34917e-25
5.88752e-25
-3.66856e-24
1.20302e-25
4.60961e-24
-2.29246e-24
2.12614e-24
-1.04514e-25
-2.15142e-24
0
0
2.04624e-24
-2.16791e-24
0
0
0
0
0
0
0
-1.54205e-24
1.71964e-24
0
0
0
0
-2.51131e-24
1.62429e-26
5.74118e-24
0
0
0
0
-2.53017e-24
3.44625e-24
-1.09113e-23
8.20244e-28
1.4496e-23
-1.37065e-23
1.42769e-27
4.47665e-24
0
0
-6.59373e-24
4.06677e-27
5.85744e-24
-1.11624e-23
1.07162e-23
0
0
-9.62147e-24
9.3358e-24
8.98617e-24
-4.72487e-26
-8.26473e-24
0
0
6.53063e-24
-6.07938e-24
0
0
0
0
1.93294e-24
-1.90089e-24
0
0
0
-3.21202e-24
3.26881e-24
-3.09383e-24
6.21859e-24
-3.13779e-24
3.02043e-24
-3.14205e-24
3.07615e-24
-6.38399e-24
3.32968e-24
0
-3.49857e-24
3.75231e-24
-3.8786e-24
7.01281e-26
4.47733e-24
2.37941e-24
-2.62177e-24
2.8609e-24
-3.24643e-24
0
0
0
-4.29372e-24
6.68937e-24
-4.98162e-24
6.22587e-24
0
0
0
0
0
1.3368e-23
-8.98129e-24
0
0
0
0
0
0
0
7.51264e-24
-7.11349e-24
0
0
0
0
0
0
0
0
0
0
0
-7.99972e-24
1.47513e-23
-6.79731e-24
6.04992e-24
-5.7132e-24
0
0
0
-1.07712e-24
1.11774e-24
4.23783e-24
-4.30682e-24
0
4.07741e-24
-4.17211e-24
0
0
-4.11921e-24
8.51784e-24
-8.75597e-24
4.58384e-24
0
0
0
0
0
0
0
0
0
4.64529e-24
-5.41723e-24
0
0
0
0
0
0
0
-2.30341e-24
1.45908e-24
3.76643e-24
-5.11027e-24
0
0
1.40279e-23
-9.9389e-24
0
0
-1.14135e-23
1.03415e-23
-9.55041e-24
8.94809e-24
0
0
0
0
0
0
0
0
0
0
0
0
0
0
-7.98959e-24
7.45801e-24
0
-6.25073e-24
3.11782e-24
4.30034e-24
-1.36856e-24
0
0