/*--------------------------------*- C++ -*----------------------------------*\
| =========                 |                                                 |
| \\      /  F ield         | OpenFOAM: The Open Source CFD Toolbox           |
|  \\    /   O peration     | Version:  2412                                  |
|   \\  /    A nd           | Website:  www.openfoam.com                      |
|    \\/     M anipulation  |                                                 |
\*---------------------------------------------------------------------------*/
FoamFile
{
    version     2.0;
    format      ascii;
    arch        "LSB;label=32;scalar=64";
    class       volVectorField;
    location    "2000";
    object      wallShearStress;
}
// * * * * * * * * * * * * * * * * * * * * * * * * * * * * * * * * * * * * * //

dimensions      [0 2 -2 0 0 0 0];

internalField   uniform (0 0 0);

boundaryField
{
    lowerWall
    {
        type            calculated;
        value           nonuniform List<vector> 
496
(
(-0.000412846 2.43959e-08 0)
(-0.000408659 2.57984e-09 0)
(-0.000408609 1.0506e-08 -4.33246e-27)
(-0.000406095 9.09421e-09 5.75721e-27)
(-0.000404595 9.76914e-09 7.47054e-27)
(-0.000402661 9.92566e-09 9.05337e-27)
(-0.000400821 1.03157e-08 -1.55575e-61)
(-0.000398879 1.07444e-08 0)
(-0.000396878 1.12441e-08 4.26999e-45)
(-0.000394813 1.17829e-08 3.09337e-26)
(-0.000392666 1.23094e-08 -4.96235e-37)
(-0.000390447 1.29483e-08 0)
(-0.000388142 1.3583e-08 -4.03813e-26)
(-0.000385758 1.4283e-08 0)
(-0.000383286 1.48739e-08 4.65563e-26)
(-0.000380723 1.57308e-08 4.95948e-26)
(-0.000378067 1.64833e-08 5.25924e-26)
(-0.000375314 1.73493e-08 -1.2446e-60)
(-0.000372463 1.81054e-08 7.43802e-48)
(-0.000369508 1.90647e-08 1.81114e-71)
(-0.000366446 1.99578e-08 9.32104e-37)
(-0.000363272 2.09312e-08 -6.67553e-26)
(-0.000359986 2.20078e-08 1.2446e-60)
(-0.000356579 2.30225e-08 1.04049e-47)
(-0.000353049 2.41535e-08 1.08168e-36)
(-0.000349389 2.53138e-08 7.6651e-26)
(-0.000345596 2.66827e-08 -7.88483e-26)
(-0.000341667 2.79303e-08 1.55575e-61)
(-0.000337592 2.93014e-08 -8.28274e-26)
(-0.000333371 3.07155e-08 1.43365e-44)
(-0.000328992 3.23476e-08 -2.48921e-60)
(-0.000324455 3.38702e-08 -8.75423e-26)
(-0.00031975 3.55555e-08 -8.87126e-26)
(-0.000314875 3.72355e-08 8.96471e-26)
(-0.000309817 3.93585e-08 -9.03329e-26)
(-0.000304574 4.11001e-08 1.67677e-44)
(-0.000299135 4.32259e-08 0)
(-0.000293498 4.52427e-08 0)
(-0.000287657 4.78096e-08 -9.00142e-26)
(-0.0002816 5.0039e-08 2.66394e-46)
(-0.000275322 5.26665e-08 -8.7605e-26)
(-0.00026882 5.53147e-08 6.2361e-37)
(-0.000262091 5.79455e-08 -8.32996e-26)
(-0.000255128 6.09249e-08 8.03248e-26)
(-0.000247934 6.38028e-08 -5.58303e-37)
(-0.000240516 6.68145e-08 0)
(-0.000232889 6.91066e-08 -1.45493e-47)
(-0.000225106 7.13925e-08 0)
(-0.000217266 7.24996e-08 -5.50134e-26)
(-0.000209479 7.31493e-08 2.3723e-26)
(-0.000201788 7.40746e-08 0)
(-0.000194146 7.5912e-08 -1.46289e-26)
(-0.000186415 7.94464e-08 9.20145e-27)
(-0.000178402 8.45483e-08 3.09278e-27)
(-0.000169918 9.11943e-08 -5.48852e-38)
(-0.000160923 9.76561e-08 -2.26392e-72)
(-0.000151421 1.0514e-07 0)
(-0.000141313 1.13531e-07 -2.96724e-26)
(-0.000130457 1.23285e-07 0)
(-0.000118837 1.33157e-07 -3.8065e-37)
(-0.000106329 1.44258e-07 -4.72183e-37)
(-9.29884e-05 1.56498e-07 -2.06676e-47)
(-7.9015e-05 1.69351e-07 0)
(-6.4446e-05 1.82671e-07 8.79259e-37)
(-4.92866e-05 1.9652e-07 1.44093e-25)
(-3.35718e-05 2.10607e-07 1.23664e-36)
(-1.7327e-05 2.25096e-07 -1.98647e-25)
(-5.88001e-07 2.39692e-07 6.13331e-44)
(1.6608e-05 2.54546e-07 1.92768e-36)
(3.42125e-05 2.69093e-07 -8.25731e-47)
(5.21756e-05 2.83931e-07 -6.92774e-44)
(7.04427e-05 2.9845e-07 -1.94616e-25)
(8.89592e-05 3.12867e-07 0)
(0.000107667 3.26778e-07 -1.7866e-36)
(0.000126504 3.40107e-07 2.74128e-25)
(0.000145413 3.5294e-07 -2.21846e-36)
(0.000164336 3.64921e-07 0)
(0.000183214 3.76447e-07 3.7333e-25)
(0.000201992 3.86921e-07 -4.1114e-25)
(0.000220616 3.96893e-07 0)
(0.000239037 4.05672e-07 0)
(0.000257213 4.13713e-07 -1.99136e-59)
(0.000275092 4.21067e-07 -2.93952e-25)
(0.000292637 4.27151e-07 0)
(0.000309813 4.32498e-07 -9.30466e-47)
(0.000326583 4.36614e-07 0)
(0.000342919 4.40043e-07 1.0766e-46)
(0.000358798 4.42167e-07 1.44891e-70)
(0.000374198 4.43432e-07 1.70226e-36)
(0.000389098 4.43513e-07 -1.82647e-36)
(0.000403487 4.42839e-07 0)
(0.000417356 4.41107e-07 -2.87448e-25)
(0.000430693 4.38508e-07 -2.23248e-36)
(0.000443492 4.34948e-07 -3.26997e-25)
(0.000455748 4.30409e-07 2.65532e-43)
(0.000467459 4.24941e-07 -2.69026e-36)
(0.000478623 4.18341e-07 -2.85465e-36)
(0.000489242 4.10864e-07 3.02505e-36)
(0.000499316 4.02258e-07 0)
(0.000508848 3.92505e-07 1.6921e-36)
(0.000517841 3.81674e-07 -1.7865e-36)
(0.000526299 3.69614e-07 0)
(0.000534221 3.55901e-07 -2.72785e-25)
(0.000541607 3.40465e-07 -2.87069e-25)
(0.000548453 3.23117e-07 3.98273e-59)
(0.000554756 3.03632e-07 2.3063e-36)
(0.00056051 2.81626e-07 0)
(0.000565708 2.56394e-07 -3.48698e-25)
(0.00057033 2.2722e-07 3.65255e-25)
(0.000574354 1.93338e-07 1.39074e-36)
(0.000577751 1.53463e-07 -1.99895e-25)
(0.000580478 1.05756e-07 0)
(0.000582476 4.79609e-08 0)
(0.000583665 -2.33222e-08 3.95367e-43)
(0.000583937 -1.13342e-07 2.37375e-25)
(0.000583129 -2.2992e-07 -2.47349e-25)
(0.000581035 -3.85571e-07 7.96546e-59)
(0.000577253 -6.00413e-07 5.58833e-47)
(0.000571555 -9.2372e-07 0)
(0.000561849 -1.39893e-06 0)
(0.00055148 -2.81187e-06 7.44634e-23)
(0.000547412 -5.46572e-06 3.6553e-26)
(0.000548032 -8.66897e-06 -3.02305e-22)
(0.000549077 -1.20139e-05 -6.0841e-22)
(0.000549616 -1.53297e-05 9.66177e-28)
(0.000549868 -1.86233e-05 1.23266e-21)
(0.000549865 -2.1917e-05 1.24149e-21)
(0.000549543 -2.52021e-05 1.24972e-21)
(0.000548898 -2.84677e-05 -2.51754e-25)
(0.000547966 -3.17096e-05 1.26642e-21)
(0.000546783 -3.49265e-05 -3.70107e-25)
(0.000545384 -3.81165e-05 3.14154e-25)
(0.000543803 -4.12786e-05 2.58291e-21)
(0.000542071 -4.44119e-05 2.60029e-21)
(0.000540222 -4.75169e-05 2.61722e-21)
(0.000538288 -5.05941e-05 5.26873e-21)
(0.000536303 -5.36446e-05 2.6507e-21)
(0.000534305 -5.66701e-05 -3.44751e-27)
(0.000532346 -5.96739e-05 6.53877e-25)
(0.000530491 -6.26613e-05 -3.30705e-25)
(0.000528824 -6.56411e-05 4.89735e-25)
(0.00052745 -6.86255e-05 7.17465e-43)
(0.000526503 -7.16316e-05 -1.01949e-37)
(0.000526166 -7.46825e-05 -3.38845e-25)
(0.000526667 -7.78073e-05 5.57113e-21)
(0.000528454 -8.10597e-05 -5.60276e-21)
(0.000531775 -8.44509e-05 8.61544e-26)
(0.000539063 -8.82407e-05 -8.60842e-26)
(0.000547148 -9.12571e-05 1.75143e-25)
(0.000548598 -9.22269e-05 -5.65051e-21)
(0.000544752 -9.19222e-05 5.58184e-21)
(0.000540066 -9.12287e-05 2.57139e-38)
(0.000535693 -9.05387e-05 5.44706e-21)
(0.000531506 -8.9871e-05 -5.37861e-21)
(0.00052756 -8.92195e-05 -6.46771e-25)
(0.000523995 -8.86127e-05 5.24474e-21)
(0.000520863 -8.80692e-05 -4.11423e-37)
(0.000518154 -8.75915e-05 -5.87747e-39)
(0.000515847 -8.71779e-05 -1.00839e-20)
(0.00051392 -8.68259e-05 -9.95164e-21)
(0.000512345 -8.6532e-05 1.19515e-24)
(0.000511095 -8.62925e-05 9.68537e-21)
(0.000510138 -8.61033e-05 1.9112e-20)
(0.000509436 -8.59587e-05 2.29524e-24)
(0.000508957 -8.5853e-05 -5.45273e-41)
(0.000508673 -8.57815e-05 5.87747e-39)
(0.000508562 -8.57398e-05 9.05565e-21)
(0.000508607 -8.57254e-05 -7.34684e-40)
(0.000508785 -8.57356e-05 8.81706e-21)
(0.000509071 -8.57658e-05 3.05629e-37)
(0.000509445 -8.58121e-05 -8.5867e-21)
(0.000509895 -8.58715e-05 2.07602e-24)
(0.000510425 -8.59446e-05 -2.03529e-24)
(0.000511022 -8.60309e-05 8.2581e-21)
(0.00051166 -8.61259e-05 8.15297e-21)
(0.000512323 -8.6226e-05 -1.61027e-20)
(0.000513012 -8.63294e-05 1.93344e-24)
(0.00051375 -8.64401e-05 -1.57014e-20)
(0.000514525 -8.65593e-05 1.10203e-39)
(0.000515303 -8.66806e-05 -1.53208e-20)
(0.000516069 -8.68002e-05 1.51347e-20)
(0.000516836 -8.69176e-05 3.65137e-24)
(0.000517639 -8.70395e-05 1.47792e-20)
(0.000518468 -8.71674e-05 1.17549e-38)
(0.000519279 -8.72934e-05 -1.7708e-24)
(0.000520081 -8.74153e-05 -1.59441e-26)
(0.00052092 -8.75414e-05 1.71557e-24)
(0.000521778 -8.76721e-05 2.79312e-20)
(0.000522618 -8.77997e-05 5.09755e-25)
(0.000523441 -8.79229e-05 -1.36693e-20)
(0.000524277 -8.80454e-05 1.35273e-20)
(0.000525158 -8.81736e-05 2.67792e-20)
(0.000526064 -8.83062e-05 2.65107e-20)
(0.000526963 -8.84369e-05 5.25104e-20)
(0.000527873 -8.85667e-05 -1.5782e-24)
(0.000528822 -8.87007e-05 -9.19865e-25)
(0.000529785 -8.88365e-05 -1.5676e-24)
(0.000530755 -8.89709e-05 -9.14814e-25)
(0.000531753 -8.91074e-05 -2.50933e-20)
(0.000532753 -8.9243e-05 -1.52906e-24)
(0.000533745 -8.93743e-05 1.49745e-24)
(0.000534754 -8.95045e-05 2.45126e-20)
(0.000535791 -8.9636e-05 5.87747e-39)
(0.000536827 -8.97646e-05 -4.70198e-38)
(0.000537861 -8.98884e-05 -2.40203e-20)
(0.000538896 -9.00082e-05 4.77592e-20)
(0.000539909 -9.01196e-05 -1.43814e-24)
(0.000540897 -9.0221e-05 1.08145e-36)
(0.000541872 -9.03136e-05 -4.70512e-20)
(0.000542814 -9.03942e-05 4.687e-20)
(0.000543701 -9.04579e-05 -7.19395e-25)
(0.000544533 -9.05035e-05 -4.6591e-20)
(0.000545292 -9.05271e-05 -1.39327e-26)
(0.000545949 -9.05222e-05 7.01589e-25)
(0.000546481 -9.04838e-05 4.64282e-20)
(0.000546855 -9.04045e-05 4.64511e-20)
(0.000547035 -9.02764e-05 -1.7544e-25)
(0.000546948 -9.00861e-05 0)
(0.000546462 -8.98113e-05 -4.78225e-20)
(0.000545515 -8.94415e-05 1.93724e-25)
(0.000544113 -8.89776e-05 5.2563e-20)
(0.000542202 -8.84108e-05 4.15314e-25)
(0.000539714 -8.77298e-05 5.78171e-20)
(0.000536581 -8.69224e-05 0)
(0.000532734 -8.5977e-05 0)
(0.000528103 -8.48814e-05 -2.35099e-38)
(0.000522614 -8.36231e-05 1.40227e-19)
(0.000516186 -8.21881e-05 -7.36153e-20)
(0.000508739 -8.05638e-05 -5.87747e-39)
(0.000500159 -7.87295e-05 -4.05962e-20)
(0.000490399 -7.66773e-05 -1.76324e-38)
(0.000479417 -7.43998e-05 -2.89172e-36)
(0.000467156 -7.18878e-05 9.41672e-20)
(0.00045356 -6.91325e-05 0)
(0.000438576 -6.61239e-05 -9.6499e-41)
(0.000422161 -6.28552e-05 1.69207e-24)
(0.000404271 -5.93191e-05 -1.72977e-24)
(0.000384875 -5.55097e-05 -1.78675e-36)
(0.000363931 -5.14203e-05 6.35005e-20)
(0.00034141 -4.70455e-05 -6.67563e-20)
(0.000317278 -4.23793e-05 -7.01739e-20)
(0.000291515 -3.74181e-05 0)
(0.000264089 -3.21562e-05 1.55072e-19)
(0.000235001 -2.65928e-05 8.1495e-20)
(0.000204243 -2.0726e-05 8.56442e-20)
(0.000171769 -1.45493e-05 -4.49951e-20)
(0.000137496 -8.04817e-06 4.72811e-20)
(0.000101292 -1.19695e-06 8.25498e-26)
(6.32282e-05 5.99357e-06 5.21809e-20)
(2.32844e-05 1.35262e-05 9.01016e-26)
(-1.85748e-05 2.14064e-05 -3.46577e-24)
(-6.23675e-05 2.96392e-05 -6.03831e-20)
(-0.00010809 3.82255e-05 -3.91933e-24)
(-0.000155734 4.71644e-05 6.64766e-20)
(-0.000205296 5.64565e-05 6.97242e-20)
(-0.000256805 6.61059e-05 7.31186e-20)
(-0.000310324 7.61236e-05 -2.29221e-36)
(-0.000365969 8.65315e-05 -1.41059e-36)
(-0.00042379 9.73386e-05 -8.42439e-20)
(-0.000483881 0.000108562 -8.82832e-20)
(-0.000546341 0.00012022 -1.84996e-19)
(-0.000611242 0.000132327 -9.68028e-24)
(-0.000678643 0.000144894 5.07482e-20)
(-0.00074861 0.000157935 0)
(-0.0008212 0.00017146 0)
(-0.000896458 0.000185482 -5.8229e-20)
(-0.000974247 0.000199979 3.76473e-24)
(-0.00105458 0.000214953 -1.27536e-19)
(-0.00113745 0.000230406 -6.6712e-20)
(-0.00122285 0.000246337 -1.39557e-19)
(-0.00131079 0.000262758 7.29772e-20)
(-0.00140131 0.000279684 4.71198e-24)
(-0.00149443 0.000297158 -4.81427e-24)
(-0.00159023 0.000315201 -1.15434e-35)
(-0.0016887 0.000333752 -8.7152e-20)
(-0.00178985 0.000352819 -9.10934e-20)
(-0.00189344 0.000372332 -2.93779e-24)
(-0.00199976 0.000392168 5.43425e-25)
(-0.00210907 0.00041194 2.84359e-36)
(-0.00222055 0.000433179 -3.35033e-24)
(-0.00233486 0.000455005 3.42289e-24)
(-0.00245121 0.000477815 5.92398e-20)
(-0.00256875 0.000502486 6.18819e-20)
(-0.00268765 0.000525866 -1.51406e-24)
(-0.00280725 0.000549904 -2.03942e-24)
(-0.00291849 0.000573318 2.94186e-36)
(-0.00300388 0.000593328 5.71247e-25)
(-0.00318929 0.000622531 7.74295e-20)
(-0.00358334 0.000676156 -7.87498e-20)
(-0.0040154 0.000724121 0)
(-0.00439557 0.000750327 1.64441e-19)
(-0.00476937 0.000777136 -8.38877e-20)
(-0.00512719 0.000797981 -2.60898e-24)
(-0.00547398 0.000816053 1.31574e-24)
(-0.00581601 0.000822877 4.42839e-20)
(-0.00615233 0.000824474 -4.50178e-20)
(-0.00648304 0.000819748 -1.38451e-24)
(-0.00680128 0.000816169 -4.63977e-20)
(-0.0071188 0.00080224 1.42556e-24)
(-0.00742484 0.000788194 2.64142e-36)
(-0.00772593 0.000767265 1.17549e-38)
(-0.00801921 0.00074296 -4.87561e-20)
(-0.00830538 0.000714346 1.51026e-24)
(-0.00858402 0.000681844 -4.97046e-20)
(-0.00885507 0.000645474 5.01115e-20)
(-0.00911828 0.000605418 -2.52369e-20)
(-0.00937355 0.000561811 2.93874e-39)
(-0.00962081 0.000514806 -5.10495e-20)
(-0.00986015 0.000464563 2.56283e-20)
(-0.0100924 0.000411246 -2.57034e-20)
(-0.0103199 0.00035504 2.57461e-20)
(-0.0105434 0.000296152 7.85609e-25)
(-0.0107612 0.000234683 -7.85245e-25)
(-0.0109926 0.000170387 -2.24208e-44)
(-0.0112575 0.000104238 1.93944e-25)
(-0.0113427 3.96108e-05 -1.58222e-21)
(-0.0110859 7.23323e-06 3.08422e-24)
(-0.0107915 4.55487e-06 -0)
(-0.01062 3.04135e-06 2.79896e-24)
(-0.0104818 2.21056e-06 -0)
(-0.010376 1.66507e-06 2.54512e-24)
(-0.0102902 1.27491e-06 -0)
(-0.0102211 9.87868e-07 -0)
(-0.0101645 7.68393e-07 -4.42356e-24)
(-0.0101184 5.98597e-07 0)
(-0.0100808 4.65201e-07 0)
(-0.0100502 3.60249e-07 0)
(-0.0100255 2.77313e-07 -0)
(-0.0100057 2.11983e-07 -7.02107e-24)
(-0.00998987 1.60729e-07 -6.7048e-24)
(-0.00997745 1.20826e-07 0)
(-0.00996774 8.99972e-08 -6.11411e-24)
(-0.00996025 6.63663e-08 0)
(-0.00995453 4.85786e-08 5.57455e-24)
(-0.00995023 3.53547e-08 -0)
(-0.00994701 2.55882e-08 5.08119e-24)
(-0.00994465 1.85841e-08 -0)
(-0.00994292 1.35927e-08 -0)
(-0.00994169 1.02389e-08 -8.83719e-24)
(-0.00994079 7.94498e-09 0)
(-0.00994015 6.49402e-09 -8.04647e-24)
(-0.00993968 5.60174e-09 0)
(-0.00993935 5.32751e-09 0)
(-0.00993908 5.21864e-09 0)
(-0.00993888 5.38588e-09 1.33194e-23)
(-0.0099387 5.56943e-09 0)
(-0.00993855 5.55512e-09 1.26572e-23)
(-0.00993841 5.52169e-09 0)
(-0.00993828 5.45309e-09 0)
(-0.00993815 5.34904e-09 1.26536e-23)
(-0.00993803 5.42491e-09 0)
(-0.00993791 5.38149e-09 -1.26512e-23)
(-0.00993779 5.32644e-09 0)
(-0.00993767 5.26323e-09 0)
(-0.00993756 5.43588e-09 0)
(-0.00993744 5.3265e-09 -1.26463e-23)
(-0.00993732 5.38284e-09 0)
(-0.0099372 5.30637e-09 0)
(-0.00993709 5.3155e-09 0)
(-0.00993697 5.31504e-09 0)
(-0.00993685 5.19762e-09 1.26402e-23)
(-0.00993673 5.28882e-09 0)
(-0.00993662 5.33394e-09 0)
(-0.0099365 5.22677e-09 0)
(-0.00993638 5.33307e-09 0)
(-0.00993626 5.27176e-09 0)
(-0.00993614 5.16573e-09 0)
(-0.00993603 5.30085e-09 0)
(-0.00993591 5.21626e-09 0)
(-0.00993579 5.24634e-09 0)
(-0.00993567 5.19911e-09 0)
(-0.00993555 5.35101e-09 1.26263e-23)
(-0.00993537 5.53385e-09 0)
(-0.00993526 3.69229e-09 -1.26238e-23)
(-0.00993583 1.988e-09 0)
(-0.00993497 1.42492e-09 0)
(-0.00987071 1.61148e-08 0)
(-0.00988575 1.39888e-08 0)
(-0.0098987 1.20877e-08 0)
(-0.00990984 1.03229e-08 0)
(-0.00991924 8.72865e-09 0)
(-0.0099271 7.25881e-09 0)
(-0.00993359 5.99924e-09 0)
(-0.00993888 4.84282e-09 0)
(-0.0099431 3.87016e-09 0)
(-0.0099464 2.97929e-09 0)
(-0.00994891 2.25628e-09 0)
(-0.00995073 1.59202e-09 0)
(-0.00995198 1.07401e-09 0)
(-0.00995274 5.92193e-10 0)
(-0.0099531 2.37694e-10 0)
(-0.00995313 -9.94957e-11 0)
(-0.00995289 -3.26044e-10 0)
(-0.00995244 -5.51458e-10 0)
(-0.00995182 -6.80592e-10 0)
(-0.00995107 -8.22098e-10 0)
(-0.00995024 -8.79266e-10 0)
(-0.00994934 -9.59751e-10 0)
(-0.00994841 -9.65394e-10 0)
(-0.00994746 -1.00308e-09 0)
(-0.00994652 -9.73245e-10 0)
(-0.00994559 -9.82246e-10 0)
(-0.00994468 -9.29253e-10 0)
(-0.00994381 -9.2026e-10 0)
(-0.00994297 -8.53362e-10 0)
(-0.00994218 -8.34212e-10 0)
(-0.00994143 -7.60238e-10 0)
(-0.00994074 -7.36512e-10 0)
(-0.00994009 -6.60367e-10 0)
(-0.00993949 -6.35901e-10 0)
(-0.00993894 -5.60822e-10 0)
(-0.00993843 -5.38582e-10 0)
(-0.00993798 -4.68489e-10 0)
(-0.00993759 -4.51665e-10 0)
(-0.00993724 -3.88533e-10 0)
(-0.00993694 -3.77801e-10 0)
(-0.00993668 -3.22603e-10 0)
(-0.00993645 -3.15774e-10 0)
(-0.00993625 -2.69029e-10 0)
(-0.00993608 -2.63132e-10 0)
(-0.00993592 -2.25619e-10 0)
(-0.00993579 -2.1918e-10 0)
(-0.00993567 -1.90479e-10 0)
(-0.00993557 -1.85979e-10 0)
(-0.00993548 -1.62353e-10 0)
(-0.0099354 -1.57744e-10 0)
(-0.00993533 -1.37521e-10 0)
(-0.00993527 -1.35083e-10 0)
(-0.00993521 -1.15706e-10 0)
(-0.00993516 -1.17284e-10 0)
(-0.00993512 -9.97042e-11 0)
(-0.00993508 -1.01538e-10 0)
(-0.00993505 -8.31113e-11 0)
(-0.00993502 -9.07381e-11 0)
(-0.00993499 -7.29775e-11 0)
(-0.00993497 -7.96292e-11 0)
(-0.00993494 -6.04061e-11 0)
(-0.00993493 -7.23486e-11 0)
(-0.00993491 -5.51336e-11 0)
(-0.00993489 -5.96206e-11 0)
(-0.00993489 -4.77131e-11 0)
(-0.00993485 -3.29708e-11 0)
(-0.0099349 -4.05584e-11 0)
(-0.00993475 2.04464e-10 0)
(-0.00993522 -5.99359e-10 0)
(-0.00993375 9.54486e-09 0)
(-0.0221565 -0.000326587 0)
(-0.00855009 -7.4871e-06 0)
(-0.00850758 -3.4713e-08 0)
(-0.00858564 6.25995e-08 0)
(-0.00865293 7.52858e-08 0)
(-0.0087116 3.47732e-08 0)
(-0.00872292 -5.81901e-09 0)
(-0.00871171 -1.12046e-08 0)
(-0.00870666 -1.43131e-09 0)
(-0.00871052 4.37784e-09 0)
(-0.00871742 6.42016e-09 0)
(-0.00872587 8.49853e-09 0)
(-0.00873678 1.13611e-08 0)
(-0.00875039 1.39204e-08 0)
(-0.00876622 1.60293e-08 0)
(-0.00878399 1.80594e-08 0)
(-0.00880357 1.96144e-08 0)
(-0.00882481 2.14518e-08 0)
(-0.00884756 2.40393e-08 0)
(-0.00887166 2.4012e-08 0)
(-0.00889698 2.24896e-08 0)
(-0.00892346 2.61322e-08 0)
(-0.00895099 3.16853e-08 0)
(-0.00897941 3.26131e-08 0)
(-0.00900868 2.12232e-08 0)
(-0.00903891 2.51009e-08 0)
(-0.00906987 4.95323e-08 0)
(-0.00910136 2.71069e-08 0)
(-0.00913364 5.01164e-09 0)
(-0.00916675 4.91673e-08 0)
(-0.00920055 5.40607e-08 0)
(-0.00923522 2.10667e-08 0)
(-0.00927101 2.80137e-08 0)
(-0.00930805 4.30569e-08 0)
(-0.00934635 3.97037e-08 0)
(-0.00938584 3.88679e-08 0)
(-0.00942627 4.06498e-08 0)
(-0.00946727 4.05595e-08 0)
(-0.00950836 4.05545e-08 0)
(-0.00954905 3.99803e-08 0)
(-0.00958881 3.88741e-08 0)
(-0.00962718 3.72146e-08 0)
(-0.00966378 3.53959e-08 0)
(-0.00969827 3.31014e-08 0)
(-0.00973044 3.07936e-08 0)
(-0.00976012 2.82419e-08 0)
(-0.00978725 2.57412e-08 0)
(-0.00981181 2.3184e-08 0)
(-0.00983385 2.07338e-08 0)
(-0.00985344 1.83552e-08 0)
)
;
    }
    upperWall
    {
        type            calculated;
        value           nonuniform List<vector> 
496
(
(-0.00058428 3.33319e-08 0)
(-0.00059124 1.11328e-08 2.73516e-27)
(-0.000592563 1.85704e-08 0)
(-0.000596956 1.79178e-08 0)
(-0.00060013 1.85204e-08 0)
(-0.000603799 1.84495e-08 8.24002e-27)
(-0.000607293 1.91635e-08 0)
(-0.000610956 1.965e-08 0)
(-0.0006146 1.94601e-08 2.56097e-26)
(-0.000618364 1.9393e-08 0)
(-0.000622113 2.0325e-08 -3.16468e-26)
(-0.000625947 2.11953e-08 0)
(-0.000629773 2.07053e-08 0)
(-0.000633708 2.041e-08 0)
(-0.000637669 2.17466e-08 0)
(-0.000641704 2.28636e-08 0)
(-0.000645756 2.33829e-08 4.89293e-26)
(-0.000649897 2.51115e-08 0)
(-0.000654068 2.58264e-08 0)
(-0.000658314 2.39594e-08 0)
(-0.000662616 2.16736e-08 0)
(-0.000666964 1.93763e-08 6.16427e-26)
(-0.000671275 2.7165e-09 -6.38984e-26)
(-0.000675864 -7.45486e-08 6.60387e-26)
(-0.000679436 -5.40364e-08 6.79472e-26)
(-0.000683823 2.30007e-08 0)
(-0.000688292 2.45575e-08 0)
(-0.000692815 2.61528e-08 0)
(-0.000697413 2.78891e-08 0)
(-0.000702023 2.83067e-08 0)
(-0.000706645 2.8092e-08 0)
(-0.000711278 2.78606e-08 0)
(-0.000715927 2.89406e-08 7.76745e-26)
(-0.000720621 3.09729e-08 0)
(-0.000725358 3.20549e-08 0)
(-0.000730064 3.09387e-08 0)
(-0.000734819 2.95411e-08 0)
(-0.000739621 2.94869e-08 7.49484e-26)
(-0.000744392 2.86309e-08 0)
(-0.000749132 3.00076e-08 -7.09823e-26)
(-0.000753856 3.27601e-08 0)
(-0.000758625 3.73992e-08 6.49296e-26)
(-0.000763454 4.84293e-08 0)
(-0.000768485 9.12303e-08 0)
(-0.000772519 2.40553e-07 0)
(-0.000778509 1.98051e-07 4.50158e-26)
(-0.000783277 3.9695e-08 3.79368e-26)
(-0.000787842 3.4027e-08 2.99061e-26)
(-0.000792355 2.93418e-08 0)
(-0.000796769 2.36155e-08 0)
(-0.000801228 7.16294e-09 0)
(-0.000805241 -5.53597e-08 0)
(-0.000810102 -2.5214e-07 0)
(-0.000812266 -1.81667e-07 0)
(-0.000816273 2.10767e-08 0)
(-0.000820281 2.57688e-08 4.05991e-26)
(-0.00082425 2.9095e-08 5.14484e-26)
(-0.000828305 3.52765e-08 0)
(-0.00083226 5.48579e-08 -7.66381e-26)
(-0.000836643 1.19416e-07 0)
(-0.000839065 3.27666e-07 0)
(-0.000844957 1.66941e-07 0)
(-0.00084983 -3.17414e-07 1.4998e-25)
(-0.000852613 -1.51106e-07 0)
(-0.000853539 3.07367e-07 0)
(-0.00086165 2.64588e-09 0)
(-0.000861001 4.00587e-08 2.65348e-25)
(-0.000869046 7.38064e-10 0)
(-0.00086925 8.74663e-09 0)
(-0.000876305 -5.449e-08 0)
(-0.000880613 -9.54211e-08 -2.14003e-25)
(-0.00088278 5.36395e-07 0)
(-0.000888395 3.77262e-07 0)
(-0.000893929 -6.42364e-08 -2.94274e-25)
(-0.00089741 -2.4637e-07 0)
(-0.000903401 -5.67685e-07 -3.56479e-25)
(-0.000908573 -3.18254e-07 0)
(-0.000914034 8.94853e-08 0)
(-0.000919767 1.27112e-07 4.61748e-25)
(-0.000924807 2.28498e-07 0)
(-0.000931159 4.0744e-07 0)
(-0.000933798 7.52451e-07 0)
(-0.000938646 5.37634e-07 -3.18522e-25)
(-0.000944983 7.86878e-08 0)
(-0.000950406 5.37879e-08 3.68047e-25)
(-0.000956126 2.84007e-08 0)
(-0.000961641 -2.59875e-08 0)
(-0.000967589 -1.48359e-07 -4.50403e-25)
(-0.00097196 -3.71126e-07 0)
(-0.000977483 -4.47124e-07 -5.10924e-25)
(-0.000988374 2.11952e-07 0)
(-0.000991009 9.04332e-07 2.8629e-25)
(-0.000992912 5.7582e-07 0)
(-0.000998577 8.35496e-08 3.22452e-25)
(-0.00100419 -2.08023e-09 -3.40576e-25)
(-0.00100865 -1.02934e-07 0)
(-0.00101387 -2.85897e-07 3.78587e-25)
(-0.00101721 -6.11201e-07 0)
(-0.00102239 -6.81423e-07 0)
(-0.00103357 -1.58194e-07 4.3747e-25)
(-0.00103791 2.09643e-07 0)
(-0.00104239 2.50408e-07 2.40443e-25)
(-0.00104649 3.35573e-07 2.51705e-25)
(-0.00105 4.43502e-07 -2.63367e-25)
(-0.00105258 6.42668e-07 2.75374e-25)
(-0.00105683 8.80622e-07 0)
(-0.00105825 8.98519e-07 0)
(-0.00105585 4.71154e-07 0)
(-0.00105923 1.00117e-07 0)
(-0.00106232 4.99002e-08 -3.40965e-25)
(-0.00106482 1.27485e-08 1.77367e-25)
(-0.00106684 1.53379e-08 1.84419e-25)
(-0.00106926 -1.49723e-08 0)
(-0.00107177 -7.83127e-08 0)
(-0.00107385 -1.73073e-07 0)
(-0.001076 -3.33563e-07 0)
(-0.00107825 -5.96572e-07 0)
(-0.00107947 -8.38719e-07 -2.29741e-25)
(-0.00108161 -3.28435e-07 2.37704e-25)
(-0.00109108 1.88608e-07 0)
(-0.0010926 1.32144e-07 -2.46131e-25)
(-0.00109462 1.58628e-07 0)
(-0.00109592 1.58257e-07 0)
(-0.00109772 1.93035e-07 0)
(-0.00109991 1.72446e-07 1.2659e-25)
(-0.00110067 1.63556e-07 -3.81599e-25)
(-0.00110311 1.63796e-07 2.54814e-25)
(-0.00110425 1.28943e-07 2.05863e-24)
(-0.00110496 2.49407e-07 0)
(-0.00110786 2.93333e-07 -2.61308e-25)
(-0.00110777 3.28119e-07 2.61544e-25)
(-0.00110986 4.35183e-07 4.22287e-24)
(-0.00111074 4.49983e-07 0)
(-0.00111059 6.296e-07 4.28023e-24)
(-0.0011124 7.68715e-07 4.30617e-24)
(-0.00111117 5.31651e-07 -5.4411e-25)
(-0.0011074 1.60904e-07 4.92704e-24)
(-0.00110846 -8.02716e-08 0)
(-0.00110918 -1.42893e-07 0)
(-0.00111019 -2.40645e-07 -4.18588e-24)
(-0.00111089 -3.90804e-07 1.56466e-27)
(-0.00111186 -5.83336e-07 -5.65557e-25)
(-0.00111249 -8.27193e-07 9.39338e-24)
(-0.00111338 -3.40399e-07 -9.16397e-24)
(-0.00112179 1.13447e-07 -8.90226e-24)
(-0.00112123 1.82084e-08 -2.88543e-25)
(-0.00112151 8.72923e-08 0)
(-0.00112239 1.11968e-07 -9.3821e-24)
(-0.00112242 1.08527e-07 -1.48222e-25)
(-0.0011227 9.75978e-08 1.45982e-25)
(-0.00112271 1.59455e-07 9.27533e-24)
(-0.00112323 2.11499e-07 -5.75638e-25)
(-0.00112329 2.34163e-07 -8.52562e-24)
(-0.00112294 3.47701e-07 0)
(-0.00112205 5.33464e-07 -8.9176e-24)
(-0.0011228 6.55942e-07 0)
(-0.00112028 5.54333e-07 -8.75173e-24)
(-0.00111621 4.4891e-08 0)
(-0.00111566 -4.91059e-07 0)
(-0.00111507 -7.60488e-07 -1.06788e-24)
(-0.00111483 -5.94742e-07 1.05064e-24)
(-0.00112048 -4.51417e-08 -1.04248e-24)
(-0.00111944 2.55384e-07 3.09e-24)
(-0.00111849 3.61681e-07 1.34375e-26)
(-0.00111668 5.40557e-07 1.35332e-26)
(-0.00111661 7.55849e-07 -1.79754e-23)
(-0.00111322 9.16538e-07 1.98672e-24)
(-0.00110942 6.15344e-07 -3.93408e-24)
(-0.00110834 1.21828e-07 1.94054e-24)
(-0.00110662 7.47453e-08 1.34932e-23)
(-0.00110497 6.5915e-08 3.81979e-24)
(-0.0011031 5.38987e-08 -1.88434e-24)
(-0.00110099 5.18685e-08 1.49861e-23)
(-0.00109875 4.64838e-08 2.96857e-23)
(-0.00109625 4.19016e-08 2.75593e-23)
(-0.00109361 2.70436e-08 1.81315e-24)
(-0.00109061 1.91379e-09 0)
(-0.00108744 -5.81632e-08 0)
(-0.00108353 -1.5664e-07 0)
(-0.00107982 -3.00939e-07 2.63081e-23)
(-0.00107505 -4.93673e-07 2.95492e-23)
(-0.00107227 -6.63225e-07 0)
(-0.00106965 -3.04451e-07 0)
(-0.00106365 2.39994e-07 2.69965e-23)
(-0.00105889 4.33483e-07 -2.8451e-23)
(-0.00105186 7.27205e-07 1.65155e-24)
(-0.00104717 4.56203e-07 -2.8065e-23)
(-0.00104148 -1.66438e-07 -2.45651e-23)
(-0.00103444 -3.68119e-07 0)
(-0.00102898 -6.24932e-07 0)
(-0.001022 -3.95997e-07 0)
(-0.00101432 1.59863e-08 -1.59214e-24)
(-0.00100648 2.15597e-08 -4.71546e-23)
(-0.00099823 2.39675e-08 -5.15061e-23)
(-0.000989617 2.87459e-08 0)
(-0.00098046 4.65752e-08 -1.55082e-24)
(-0.000970644 9.49321e-08 1.52181e-24)
(-0.000960515 2.12036e-07 0)
(-0.000949371 4.75726e-07 -1.52548e-24)
(-0.000940905 3.62615e-07 3.01936e-24)
(-0.000929557 1.17669e-09 2.20985e-26)
(-0.000917582 -1.44303e-08 -1.4845e-24)
(-0.000905008 -2.84369e-08 -4.61686e-23)
(-0.000891776 -6.35815e-08 -2.96918e-24)
(-0.000877853 -1.35232e-07 4.73295e-23)
(-0.000863752 -3.01002e-07 9.59246e-23)
(-0.000847457 -1.86812e-07 -9.2684e-23)
(-0.00083156 1.89531e-07 -1.45591e-24)
(-0.000817209 9.66925e-08 9.47921e-23)
(-0.000800451 -2.22485e-07 9.33065e-23)
(-0.00078201 -9.4058e-08 9.32742e-23)
(-0.000765362 -5.54526e-08 7.28096e-25)
(-0.000746073 -8.84499e-08 -9.35963e-23)
(-0.000728334 4.68629e-09 -1.10537e-24)
(-0.00070907 -1.61221e-07 3.6677e-25)
(-0.000689424 -2.51862e-07 0)
(-0.00066872 -2.45876e-07 0)
(-0.000648348 -1.30093e-07 0)
(-0.000628379 -1.75822e-07 0)
(-0.000608357 -2.80087e-07 -2.07532e-25)
(-0.000589114 -3.15932e-07 -1.09935e-22)
(-0.000570723 -3.56333e-07 1.15854e-22)
(-0.000553258 -4.13545e-07 1.21849e-22)
(-0.000536682 -4.35631e-07 1.01568e-24)
(-0.000521409 -4.29442e-07 -1.03812e-24)
(-0.000507405 -4.78262e-07 1.12306e-24)
(-0.000494546 -5.25038e-07 3.29088e-26)
(-0.00048304 -5.53344e-07 -2.44775e-24)
(-0.000472866 -5.93437e-07 -1.62031e-22)
(-0.0004641 -6.29897e-07 -1.33309e-24)
(-0.000456799 -6.66893e-07 -9.23343e-23)
(-0.000451019 -7.03826e-07 2.98541e-24)
(-0.000446818 -7.40844e-07 -1.54648e-24)
(-0.000444247 -7.77713e-07 1.0538e-22)
(-0.000443363 -8.14532e-07 0)
(-0.00044422 -8.50839e-07 1.16214e-22)
(-0.000446879 -8.86973e-07 -1.20081e-22)
(-0.000451399 -9.22755e-07 1.26111e-22)
(-0.000457821 -9.58029e-07 -1.34441e-22)
(-0.000466199 -9.92697e-07 0)
(-0.000476594 -1.02654e-06 -1.48049e-22)
(-0.000489071 -1.0595e-06 -2.45992e-24)
(-0.000503701 -1.09115e-06 5.09359e-24)
(-0.000520541 -1.12141e-06 1.70979e-22)
(-0.000539658 -1.15056e-06 1.76475e-22)
(-0.000561128 -1.1779e-06 0)
(-0.000585007 -1.2034e-06 0)
(-0.000611382 -1.22621e-06 -3.27049e-24)
(-0.000640358 -1.24627e-06 6.76901e-24)
(-0.000672027 -1.2632e-06 1.09974e-22)
(-0.000706492 -1.27708e-06 1.18914e-22)
(-0.000743795 -1.28803e-06 0)
(-0.000783995 -1.29375e-06 0)
(-0.000827166 -1.29328e-06 -1.36734e-22)
(-0.000873386 -1.28915e-06 4.53234e-24)
(-0.00092272 -1.28431e-06 1.50088e-22)
(-0.000975232 -1.27587e-06 -4.84799e-24)
(-0.00103099 -1.26217e-06 0)
(-0.00109007 -1.24279e-06 0)
(-0.00115255 -1.21691e-06 1.80093e-22)
(-0.0012185 -1.18464e-06 1.88449e-22)
(-0.00128801 -1.14512e-06 0)
(-0.00136114 -1.09782e-06 0)
(-0.00143797 -1.04254e-06 -6.8212e-24)
(-0.00151859 -9.78484e-07 6.96713e-24)
(-0.00160307 -9.0626e-07 0)
(-0.0016915 -8.25191e-07 -3.89554e-24)
(-0.00178394 -7.33768e-07 3.97874e-24)
(-0.00188044 -6.33068e-07 1.34516e-22)
(-0.00198105 -5.19078e-07 0)
(-0.00208581 -3.92925e-07 1.51346e-22)
(-0.00219477 -2.54902e-07 -9.57395e-24)
(-0.00230798 -1.05726e-07 4.94213e-24)
(-0.0024255 5.53789e-08 0)
(-0.00254734 2.29871e-07 1.79433e-22)
(-0.0026735 4.16814e-07 -5.61005e-24)
(-0.00280397 6.14686e-07 1.89038e-22)
(-0.00293874 8.21152e-07 0)
(-0.00307774 1.03739e-06 3.23722e-24)
(-0.00322082 1.26752e-06 -3.30585e-24)
(-0.00336771 1.51661e-06 1.11147e-22)
(-0.00351826 1.77512e-06 1.82332e-24)
(-0.00367236 2.03003e-06 -1.86192e-24)
(-0.0038301 2.2372e-06 1.24957e-22)
(-0.00399141 2.3854e-06 0)
(-0.0041558 2.3809e-06 1.06165e-24)
(-0.0043221 2.42178e-06 1.38778e-22)
(-0.00448844 3.53947e-06 -1.45038e-22)
(-0.00465928 4.63998e-06 0)
(-0.004835 4.34746e-06 5.87287e-25)
(-0.00501557 3.91176e-06 8.68951e-27)
(-0.00520036 3.91832e-06 -1.55426e-22)
(-0.00538918 3.84353e-06 1.20851e-24)
(-0.00558118 3.82482e-06 -1.5668e-22)
(-0.00577467 4.24548e-06 -1.24175e-24)
(-0.00597065 4.67351e-06 0)
(-0.00616827 4.67915e-06 0)
(-0.00636628 4.56814e-06 0)
(-0.00656407 4.48374e-06 0)
(-0.00676087 4.44271e-06 1.33423e-24)
(-0.0069561 4.37704e-06 -2.68183e-24)
(-0.00714884 4.27142e-06 1.34759e-24)
(-0.0073384 4.16281e-06 8.74966e-23)
(-0.00752399 4.03042e-06 1.38504e-24)
(-0.00770489 3.88398e-06 1.13147e-26)
(-0.00788037 3.72376e-06 -1.39578e-24)
(-0.00804975 3.55007e-06 0)
(-0.00821238 3.36771e-06 4.54526e-23)
(-0.00836769 3.17636e-06 0)
(-0.00851516 2.97934e-06 -4.66898e-23)
(-0.00865434 2.77791e-06 4.69127e-23)
(-0.0087849 2.5756e-06 -7.2634e-25)
(-0.00890662 2.37334e-06 2.40112e-23)
(-0.00901909 2.16402e-06 -2.29972e-23)
(-0.00912182 1.95365e-06 -1.82241e-25)
(-0.00921609 1.78507e-06 5.68891e-24)
(-0.00930314 1.62931e-06 0)
(-0.00938309 1.46197e-06 0)
(-0.00945714 1.30232e-06 -2.70974e-24)
(-0.00952567 1.14481e-06 2.59694e-24)
(-0.00958803 9.93961e-07 2.48808e-24)
(-0.00964418 8.51811e-07 4.76612e-24)
(-0.00969404 7.20349e-07 0)
(-0.00973774 6.00908e-07 0)
(-0.00977554 4.94537e-07 0)
(-0.00980781 4.01405e-07 0)
(-0.00983497 3.21334e-07 0)
(-0.00985753 2.53555e-07 0)
(-0.00987601 1.97369e-07 -6.99385e-24)
(-0.00989094 1.51314e-07 0)
(-0.00990284 1.14339e-07 -6.38836e-24)
(-0.00991218 8.50401e-08 0)
(-0.00991941 6.22526e-08 0)
(-0.00992493 4.46048e-08 5.56955e-24)
(-0.00992907 3.12935e-08 0)
(-0.00993212 2.12815e-08 0)