0 	0.00394123 	0 	0 	0 	1.06101e-05 	0 	0 	1.06101e-05 	0 	1.06101e-05
0.0474747 	0.00394136 	0.174731 	1.16845e-05 	-2.83207e-24 	0.000390795 	-0.000177362 	-3.85346e-26 	0.000390689 	6.20205e-27 	0.000390741
0.0949495 	0.00394125 	0.24227 	2.25961e-05 	3.10192e-24 	0.000702818 	-0.000321941 	1.70754e-25 	0.000702683 	1.81916e-26 	0.00070275
0.142424 	0.00394093 	0.271805 	2.12677e-05 	4.43614e-25 	0.000806875 	-0.000352196 	1.00792e-25 	0.000807361 	-1.28905e-26 	0.000807118
0.189899 	0.00393991 	0.289178 	8.64001e-06 	-6.23142e-25 	0.000876932 	-0.000360843 	-3.18626e-25 	0.000878732 	1.84529e-25 	0.000877831
0.237374 	0.00393915 	0.300938 	-1.2116e-05 	-1.14916e-23 	0.000939462 	-0.000364304 	-6.04775e-24 	0.00094308 	-2.55049e-25 	0.00094127
0.284848 	0.00393747 	0.309782 	-4.0868e-05 	7.14369e-24 	0.00100184 	-0.000366421 	4.62926e-24 	0.00100773 	-2.42947e-25 	0.00100479
0.332323 	0.00393578 	0.316796 	-7.47329e-05 	5.49802e-24 	0.00106346 	-0.000368634 	5.17934e-24 	0.00107186 	1.62895e-25 	0.00106766
0.379798 	0.00393407 	0.322593 	-0.000112606 	-2.45796e-24 	0.00112453 	-0.000371368 	-3.12528e-24 	0.00113557 	1.83612e-25 	0.00113005
0.427273 	0.00393211 	0.327574 	-0.00015409 	1.01527e-24 	0.00118548 	-0.000374742 	1.88942e-24 	0.00119924 	-3.05586e-25 	0.00119236
0.474747 	0.00393011 	0.331942 	-0.000198024 	6.86734e-24 	0.00124568 	-0.000378692 	8.93586e-24 	0.00126214 	2.41465e-25 	0.00125391
0.522222 	0.00392831 	0.335823 	-0.000242987 	-1.05478e-25 	0.00130413 	-0.000383029 	-9.39958e-25 	0.00132321 	1.26534e-24 	0.00131367
0.569697 	0.00392631 	0.339361 	-0.000289552 	-3.02031e-23 	0.00136169 	-0.000387733 	-4.60384e-23 	0.00138331 	-1.38806e-25 	0.0013725
0.617172 	0.00392398 	0.342648 	-0.000338221 	1.71639e-24 	0.0014194 	-0.000392898 	4.09749e-24 	0.00144348 	-1.65388e-24 	0.00143144
0.664646 	0.00392185 	0.345685 	-0.000386972 	1.78627e-23 	0.00147553 	-0.00039824 	3.04674e-23 	0.00150191 	-1.29051e-24 	0.00148872
0.712121 	0.00391989 	0.348511 	-0.000434987 	1.72951e-23 	0.00152918 	-0.000403509 	3.08626e-23 	0.0015577 	1.01294e-24 	0.00154344
0.759596 	0.00391729 	0.351253 	-0.00048582 	3.2358e-24 	0.00158454 	-0.000409253 	5.26105e-24 	0.00161512 	1.15171e-24 	0.00159983
0.807071 	0.00391556 	0.353749 	-0.000533114 	-1.45756e-23 	0.00163493 	-0.000414519 	-2.82196e-23 	0.00166732 	8.05797e-25 	0.00165113
0.854545 	0.00391303 	0.35623 	-0.000583252 	-9.63441e-24 	0.00168725 	-0.000420143 	-1.88938e-23 	0.00172137 	-1.85005e-25 	0.00170431
0.90202 	0.00391123 	0.358515 	-0.000630144 	-2.43373e-25 	0.00173524 	-0.000425305 	-6.62318e-26 	0.0017709 	-1.23638e-24 	0.00175307
0.949495 	0.00390864 	0.360817 	-0.000679731 	5.76102e-24 	0.0017852 	-0.000430746 	1.28994e-23 	0.00182229 	-6.15806e-25 	0.00180375
0.99697 	0.00390692 	0.362918 	-0.00072513 	1.36071e-23 	0.00182989 	-0.000435552 	2.96272e-23 	0.00186823 	2.41828e-25 	0.00184906
1.04444 	0.00390449 	0.365045 	-0.000772971 	6.0383e-24 	0.00187651 	-0.000440585 	1.26146e-23 	0.00191598 	6.60848e-25 	0.00189624
1.09192 	0.00390255 	0.367041 	-0.00081786 	-7.36218e-24 	0.00191919 	-0.000445101 	-1.69012e-23 	0.00195968 	8.74139e-25 	0.00193943
1.13939 	0.00390047 	0.369002 	-0.000863025 	-1.49955e-23 	0.00196177 	-0.000449582 	-3.36909e-23 	0.00200314 	7.13251e-25 	0.00198245
1.18687 	0.00389796 	0.370956 	-0.000908562 	-8.79735e-24 	0.00200368 	-0.00045384 	-1.99177e-23 	0.0020458 	-3.01125e-26 	0.00202474
1.23434 	0.00389623 	0.372759 	-0.000950418 	-3.09543e-24 	0.00204132 	-0.000457581 	-7.14813e-24 	0.00208408 	-7.08558e-25 	0.0020627
1.28182 	0.00389395 	0.37459 	-0.000993671 	1.1284e-24 	0.00207982 	-0.000461289 	2.71311e-24 	0.00212308 	-8.73613e-25 	0.00210144
1.32929 	0.00389166 	0.376377 	-0.00103584 	3.48248e-24 	0.00211633 	-0.000464629 	8.6262e-24 	0.00216001 	-4.47509e-25 	0.00213816
1.37677 	0.00388989 	0.378056 	-0.00107533 	5.90427e-24 	0.00214975 	-0.000467565 	1.46763e-23 	0.00219372 	-3.82617e-26 	0.00217173
1.42424 	0.00388767 	0.37976 	-0.00111569 	5.56665e-24 	0.00218332 	-0.000470343 	1.36786e-23 	0.00222747 	1.40866e-25 	0.00220539
1.47172 	0.00388532 	0.381442 	-0.00115537 	1.58122e-24 	0.00221526 	-0.000472749 	3.6817e-24 	0.00225947 	1.21134e-25 	0.00223736
1.51919 	0.00388368 	0.382998 	-0.0011917 	-3.68103e-24 	0.00224379 	-0.000474733 	-9.37615e-24 	0.00228798 	3.04982e-25 	0.00226588
1.56667 	0.00388162 	0.384582 	-0.00122869 	-4.84689e-24 	0.00227215 	-0.00047649 	-1.21215e-23 	0.00231616 	3.4839e-25 	0.00229415
1.61414 	0.00387925 	0.386177 	-0.00126568 	-1.07611e-24 	0.00229914 	-0.000477855 	-2.60076e-24 	0.00234286 	1.71542e-25 	0.002321
1.66162 	0.00387748 	0.38766 	-0.00129954 	-3.95484e-27 	0.00232324 	-0.000478771 	9.41043e-26 	0.00236656 	-4.56874e-26 	0.00234491
1.70909 	0.00387572 	0.38912 	-0.00133249 	8.71073e-27 	0.00234597 	-0.000479379 	1.06298e-25 	0.00238878 	-1.72913e-25 	0.00236739
1.75657 	0.0038737 	0.390598 	-0.00136549 	1.79138e-26 	0.00236777 	-0.000479696 	9.97153e-26 	0.00240992 	-1.50152e-25 	0.00238886
1.80404 	0.0038715 	0.392084 	-0.0013982 	3.00168e-26 	0.00238799 	-0.000479639 	1.05098e-25 	0.00242935 	4.30915e-26 	0.00240869
1.85152 	0.00386999 	0.393438 	-0.00142715 	2.04197e-26 	0.0024054 	-0.000478902 	3.4655e-26 	0.00244588 	3.84926e-26 	0.00242566
1.89899 	0.00386831 	0.3948 	-0.00145575 	-2.78783e-25 	0.00242163 	-0.000477887 	-7.62486e-25 	0.00246112 	2.38567e-26 	0.0024414
1.94646 	0.00386641 	0.396176 	-0.00148413 	-8.14335e-25 	0.00243665 	-0.000476593 	-2.14476e-24 	0.00247501 	1.34971e-26 	0.00245585
1.99394 	0.00386442 	0.397562 	-0.00151172 	-1.25622e-24 	0.00244947 	-0.000474824 	-3.24873e-24 	0.00248649 	1.76221e-26 	0.00246799
2.04141 	0.00386288 	0.398852 	-0.00153667 	-1.08485e-24 	0.00246064 	-0.000472424 	-2.80853e-24 	0.00249634 	1.60224e-26 	0.00247849
2.08889 	0.00386143 	0.400112 	-0.00156049 	-6.70334e-25 	0.00247072 	-0.000469693 	-1.75425e-24 	0.00250504 	4.9677e-27 	0.00248789
2.13636 	0.00385962 	0.401395 	-0.00158361 	-1.86014e-25 	0.00247848 	-0.000466507 	-5.15571e-25 	0.00251124 	-4.08774e-26 	0.00249487
2.18384 	0.00385774 	0.402683 	-0.00160569 	4.73591e-26 	0.00248428 	-0.000462833 	9.06695e-26 	0.0025153 	-8.65388e-26 	0.00249979
2.23131 	0.00385585 	0.403964 	-0.00162695 	1.20044e-25 	0.0024888 	-0.000458843 	2.91028e-25 	0.00251801 	-1.29397e-25 	0.00250339
2.27879 	0.00385451 	0.405135 	-0.00164544 	4.36946e-26 	0.00249207 	-0.000454527 	1.04083e-25 	0.0025196 	-1.37923e-25 	0.00250582
2.32626 	0.00385304 	0.406294 	-0.00166307 	1.42539e-25 	0.00249405 	-0.000449857 	3.86951e-25 	0.00251982 	-1.32537e-25 	0.00250692
2.37374 	0.00385135 	0.407433 	-0.00167912 	5.60341e-25 	0.00249366 	-0.000444547 	1.52516e-24 	0.00251755 	-1.01821e-25 	0.00250559
2.42121 	0.00384956 	0.408538 	-0.00169315 	1.13136e-24 	0.00249087 	-0.000438434 	3.08396e-24 	0.00251281 	-4.87728e-26 	0.00250182
2.46869 	0.00384773 	0.409625 	-0.00170608 	1.78652e-24 	0.00248675 	-0.000431881 	4.87377e-24 	0.00250672 	1.6543e-26 	0.00249672
2.51616 	0.00384623 	0.410819 	-0.00171938 	2.49626e-24 	0.00248143 	-0.000424292 	6.85739e-24 	0.00249923 	1.62376e-25 	0.00249031
2.56364 	0.00384464 	0.41199 	-0.00173154 	2.77823e-24 	0.00247481 	-0.000416432 	7.64299e-24 	0.00249041 	2.71869e-25 	0.0024826
2.61111 	0.00384286 	0.41311 	-0.00174171 	2.33251e-24 	0.00246617 	-0.000408253 	6.38511e-24 	0.00247953 	3.09508e-25 	0.00247283
2.65859 	0.00384097 	0.414142 	-0.00174898 	7.08518e-25 	0.00245502 	-0.000399554 	1.72311e-24 	0.00246627 	2.27317e-25 	0.00246065
2.70606 	0.00383918 	0.415184 	-0.00175556 	-1.81853e-24 	0.00244281 	-0.000390365 	-5.61792e-24 	0.00245191 	1.19717e-25 	0.00244737
2.75354 	0.00383772 	0.416304 	-0.00176192 	-6.10395e-24 	0.00242912 	-0.000380153 	-1.82271e-23 	0.00243591 	1.16116e-26 	0.00243253
2.80101 	0.00383602 	0.417356 	-0.00176572 	-7.04504e-24 	0.00241311 	-0.000369515 	-2.09488e-23 	0.00241758 	-3.14724e-26 	0.00241536
2.84848 	0.00383421 	0.418349 	-0.00176782 	-5.4185e-24 	0.00239572 	-0.000358651 	-1.6058e-23 	0.00239798 	-4.52813e-26 	0.00239686
2.89596 	0.00383233 	0.419292 	-0.00176836 	-1.41846e-24 	0.002377 	-0.000347503 	-4.10597e-24 	0.00237717 	-5.04653e-26 	0.00237709
2.94343 	0.00383096 	0.420326 	-0.00176793 	2.99424e-24 	0.00235571 	-0.000334718 	9.37953e-24 	0.0023536 	-2.69047e-25 	0.00235466
2.99091 	0.00382934 	0.421301 	-0.0017654 	4.27839e-24 	0.00233266 	-0.000321514 	1.32539e-23 	0.00232834 	-2.97994e-25 	0.00233051
3.03838 	0.00382756 	0.422205 	-0.00176122 	2.86841e-24 	0.00230841 	-0.000308109 	8.84402e-24 	0.00230201 	-1.51807e-25 	0.00230521
3.08586 	0.00382583 	0.423081 	-0.00175565 	4.08708e-25 	0.00228262 	-0.000294129 	1.2247e-24 	0.00227424 	8.43165e-26 	0.00227843
3.13333 	0.0038245 	0.424016 	-0.00174862 	-1.17098e-25 	0.00225404 	-0.000278612 	-3.96009e-25 	0.00224363 	2.33747e-25 	0.00224882
3.18081 	0.00382286 	0.424881 	-0.00173935 	-1.1491e-24 	0.00222389 	-0.000262776 	-3.68228e-24 	0.00221154 	2.58371e-25 	0.00221771
3.22828 	0.00382102 	0.425647 	-0.00172863 	-2.19674e-24 	0.00219316 	-0.000247009 	-7.04614e-24 	0.0021791 	2.19143e-25 	0.00218613
3.27576 	0.00381967 	0.426468 	-0.00171625 	-1.48398e-24 	0.00215904 	-0.000229668 	-4.82026e-24 	0.00214325 	4.55304e-25 	0.00215116
3.32323 	0.00381819 	0.427242 	-0.00170166 	-1.16646e-24 	0.0021232 	-0.000211796 	-3.84925e-24 	0.00210577 	4.49946e-25 	0.00211451
3.37071 	0.00381642 	0.427917 	-0.00168568 	-2.78139e-24 	0.00208731 	-0.000194195 	-8.95602e-24 	0.00206839 	6.97403e-26 	0.00207786
3.41818 	0.0038151 	0.428603 	-0.00166778 	-8.70187e-24 	0.00204836 	-0.000175615 	-2.74459e-23 	0.00202792 	-3.61406e-25 	0.00203814
3.46566 	0.00381371 	0.429246 	-0.00164759 	-9.83359e-24 	0.00200717 	-0.000155775 	-3.09111e-23 	0.00198542 	-4.73865e-25 	0.00199628
3.51313 	0.00381186 	0.429773 	-0.00162641 	-1.44514e-24 	0.00196627 	-0.000135418 	-4.83025e-24 	0.00194359 	-2.05821e-25 	0.00195492
3.56061 	0.00381074 	0.430314 	-0.00160271 	9.97031e-24 	0.00192136 	-0.000113506 	2.93852e-23 	0.00189767 	-3.38878e-26 	0.0019095
3.60808 	0.00380916 	0.43075 	-0.00157661 	8.19093e-24 	0.00187532 	-9.13154e-05 	2.41946e-23 	0.00185091 	1.39086e-26 	0.0018631
3.65556 	0.00380748 	0.431088 	-0.00154927 	-4.05371e-24 	0.0018288 	-6.8981e-05 	-1.11005e-23 	0.0018039 	-1.70509e-26 	0.00181635
3.70303 	0.00380624 	0.431386 	-0.00151874 	-1.04109e-23 	0.00177875 	-4.5079e-05 	-2.87489e-23 	0.00175336 	-1.28829e-25 	0.00176606
3.75051 	0.00380441 	0.431528 	-0.0014879 	-1.1855e-25 	0.00173028 	-2.17625e-05 	-5.26194e-25 	0.00170468 	-2.70543e-25 	0.00171749
3.79798 	0.00380339 	0.4316 	-0.0014527 	1.21074e-23 	0.00167748 	3.82016e-06 	3.09593e-23 	0.00165161 	-5.63304e-25 	0.00166454
3.84545 	0.00380168 	0.431494 	-0.00141712 	6.96481e-24 	0.00162657 	2.87572e-05 	1.7432e-23 	0.00160074 	1.39702e-26 	0.00161366
3.89293 	0.00380071 	0.431259 	-0.00137744 	1.63722e-24 	0.00157263 	5.57556e-05 	4.40056e-24 	0.00154687 	1.03668e-24 	0.00155975
3.9404 	0.00379908 	0.430806 	-0.00133694 	-3.15333e-24 	0.00152113 	8.21619e-05 	-5.61148e-24 	0.00149548 	3.04062e-25 	0.00150831
3.98788 	0.00379832 	0.430152 	-0.00129133 	-1.32057e-23 	0.00146666 	0.000111031 	-2.85875e-23 	0.00144121 	-4.10015e-25 	0.00145394
4.03535 	0.0037971 	0.429192 	-0.00124375 	5.76493e-24 	0.00141523 	0.000139369 	9.89316e-24 	0.00138998 	8.37287e-26 	0.00140261
4.08283 	0.00379608 	0.42792 	-0.00119145 	4.4692e-24 	0.0013641 	0.000169491 	9.52614e-24 	0.00133907 	2.97115e-26 	0.00135159
4.1303 	0.00379539 	0.426241 	-0.00113425 	-1.4594e-23 	0.00131452 	0.000201175 	-2.58289e-23 	0.00128967 	-2.13602e-25 	0.00130209
4.17778 	0.0037944 	0.424057 	-0.00107224 	1.03326e-23 	0.00126962 	0.00023409 	1.61403e-23 	0.00124498 	-6.10383e-25 	0.0012573
4.22525 	0.00379321 	0.421272 	-0.00100459 	7.25138e-24 	0.0012295 	0.000268428 	1.17857e-23 	0.00120524 	1.0263e-25 	0.00121737
4.27273 	0.00379225 	0.417723 	-0.000929991 	-7.42611e-25 	0.0011944 	0.000304763 	-8.23822e-25 	0.00117071 	2.98964e-25 	0.00118255
4.3202 	0.00379125 	0.413208 	-0.000848454 	-2.27491e-25 	0.00116675 	0.00034271 	-6.98109e-25 	0.00114394 	-2.28678e-25 	0.00115534
4.36768 	0.00379002 	0.407469 	-0.000760291 	3.52555e-24 	0.00114833 	0.000381776 	4.92376e-24 	0.00112678 	2.07395e-25 	0.00113755
4.41515 	0.00378876 	0.400057 	-0.000664523 	1.4591e-24 	0.00113975 	0.000421834 	1.19821e-24 	0.00111997 	-2.12134e-25 	0.00112986
4.46263 	0.00378748 	0.390298 	-0.000560866 	6.55684e-25 	0.00114116 	0.000461962 	6.97934e-25 	0.00112379 	2.40923e-25 	0.00113247
4.5101 	0.00378539 	0.377069 	-0.000452765 	-1.35867e-24 	0.00115119 	0.000498212 	-8.73758e-25 	0.00113698 	-4.27807e-26 	0.00114408
4.55758 	0.0037836 	0.357507 	-0.000335704 	6.05121e-25 	0.00116209 	0.000527882 	5.13931e-25 	0.00115177 	9.82867e-26 	0.00115692
4.60505 	0.00378143 	0.324681 	-0.000213871 	-1.44901e-25 	0.00113831 	0.000527941 	-2.05623e-25 	0.00113244 	-1.54742e-25 	0.00113537
4.65253 	0.0037796 	0.248584 	-8.56465e-05 	-2.27573e-24 	0.000826312 	0.000383878 	-5.27121e-26 	0.000824761 	3.89135e-26 	0.000825537
4.7 	0.00377872 	0 	0 	0 	2.6999e-05 	0 	0 	2.6999e-05 	0 	2.6999e-05
